ITEM: TIMESTEP
0
ITEM: NUMBER OF ATOMS
385
ITEM: BOX BOUNDS pp pp pp
0.0000000000000000e+00 1.5526350000000001e+01
0.0000000000000000e+00 1.5526350000000001e+01
0.0000000000000000e+00 1.5526350000000001e+01
ITEM: ATOMS id type x y z
1 3 4.51246 8.45677 1.20054
2 1 4.82007 8.28671 2.07875
3 1 5.10665 9.10886 0.744563
4 3 2.22831 3.30714 10.7958
5 1 2.63923 2.6868 11.4565
6 1 2.80223 3.19328 9.97422
7 3 14.8175 3.73508 6.17473
8 1 14.1657 4.32026 6.52569
9 1 14.96 3.99225 5.23179
10 3 5.24085 11.8595 13.4079
11 1 5.03785 12.7709 13.7526
12 1 5.8981 11.9494 12.6732
13 3 0.537677 15.3186 9.39518
14 1 0.542992 15.1272 8.45456
15 1 0.220616 0.693841 9.4426
16 3 9.74926 6.41526 6.77705
17 1 10.1409 7.21632 7.11262
18 1 9.19586 5.97879 7.46478
19 3 7.00597 9.33179 12.4441
20 1 6.68952 9.63057 11.5706
21 1 7.04002 10.1222 13.0073
22 3 7.14086 8.86238 4.13145
23 1 7.37999 9.50789 4.79788
24 1 7.9173 8.60362 3.54297
25 3 7.3487 9.74289 7.84223
26 1 7.88004 9.60203 8.63245
27 1 6.45485 9.90677 8.24804
28 3 6.65773 12.0689 11.1194
29 1 6.21321 12.3185 10.3389
30 1 7.54126 12.5262 11.1856
31 3 7.08338 2.93778 15.4821
32 1 6.17943 3.20205 0.215849
33 1 7.41808 3.60959 14.9092
34 3 2.69678 3.41693 3.23612
35 1 3.42074 2.86956 2.83108
36 1 1.96425 3.32097 2.54671
37 3 1.57538 14.3278 7.03707
38 1 2.41764 14.7751 7.03144
39 1 1.70078 13.4028 7.36375
40 3 2.21224 10.8183 10.0557
41 1 1.94225 9.92742 10.3956
42 1 2.34633 11.4514 10.8418
43 3 6.85304 11.9468 2.83692
44 1 6.81365 12.8768 2.4514
45 1 7.6074 11.9098 3.44716
46 3 0.455848 1.14918 13.9324
47 1 1.07014 1.28325 13.1863
48 1 1.06136 1.10251 14.7478
49 3 14.4138 7.7807 4.7023
50 1 13.4825 7.56645 4.90835
51 1 15.0191 7.30697 5.30677
52 3 2.15458 0.40303 1.35571
53 1 1.30307 0.398901 1.84427
54 1 2.63424 15.2278 1.79557
55 3 1.67957 9.54965 3.90351
56 1 1.09274 9.0051 3.36259
57 1 1.28913 10.4554 3.83747
58 3 5.11453 12.9726 9.02137
59 1 4.88707 12.0358 8.82482
60 1 5.25201 13.3142 8.13554
61 3 13.7399 12.2179 13.0477
62 1 13.989 13.1988 12.9437
63 1 13.6176 12.1187 14.0189
64 3 8.05314 2.504 6.72292
65 1 8.83546 2.91904 6.25094
66 1 7.72749 3.31237 7.21324
67 3 3.18072 10.0955 13.4019
68 1 3.92694 10.7442 13.4459
69 1 2.38471 10.6764 13.3104
70 3 0.510942 11.8187 3.66215
71 1 15.1667 11.3583 3.54271
72 1 0.201094 12.7173 3.9083
73 3 1.20862 3.86983 0.429127
74 1 1.34591 4.76694 0.0659191
75 1 1.83245 3.38553 15.3924
76 3 11.8572 12.736 9.54696
77 1 11.324 11.8995 9.32232
78 1 12.8422 12.6052 9.48858
79 3 5.17609 7.35411 3.53624
80 1 5.50597 8.03153 4.13337
81 1 4.23115 7.23596 3.78244
82 3 11.46 1.9601 8.90635
83 1 11.9776 1.94468 9.75325
84 1 11.5537 1.05275 8.43503
85 3 7.42584 5.00533 13.8807
86 1 7.63462 5.88196 14.2955
87 1 6.65417 5.11692 13.2488
88 3 13.0789 3.95842 0.0863329
89 1 13.4655 3.39842 0.757522
90 1 13.6912 3.92024 14.8539
91 3 11.1695 9.85332 3.46125
92 1 11.0206 9.181 2.81532
93 1 12.0919 10.1931 3.28441
94 3 8.53647 4.51082 11.4066
95 1 9.09939 3.66176 11.5199
96 1 8.22402 4.82728 12.2802
97 3 11.5836 6.68931 3.73826
98 1 10.6644 6.94115 3.83203
99 1 11.8447 6.85867 2.76149
100 3 9.03572 5.15966 1.99468
101 1 9.41407 4.25596 1.73409
102 1 8.04696 5.14141 1.85946
103 3 14.4912 10.1602 6.87122
104 1 14.3322 9.9611 7.78406
105 1 14.1805 11.099 6.77864
106 3 4.34388 2.55913 9.07617
107 1 4.98986 2.80798 9.78242
108 1 4.32344 3.39797 8.49995
109 3 11.9475 13.3204 4.61728
110 1 12.1362 13.2964 3.59869
111 1 11.1207 12.8187 4.78377
112 3 4.27715 11.3344 2.91968
113 1 5.2668 11.1836 2.99664
114 1 3.89824 10.4757 2.71291
115 3 12.3922 5.42171 7.23676
116 1 11.4268 5.63063 6.98215
117 1 12.767 6.32968 7.422
118 3 6.34109 14.2721 1.28774
119 1 6.14176 13.9103 0.386188
120 1 5.42023 14.2754 1.60689
121 3 10.4907 15.5102 3.66261
122 1 10.1818 14.832 4.2876
123 1 9.77887 0.1385 2.94918
124 3 13.086 1.18219 6.15833
125 1 12.9038 0.682481 5.37585
126 1 13.7782 1.84213 5.95438
127 3 15.5097 6.44071 2.65585
128 1 0.861607 6.48671 3.05156
129 1 15.0456 6.89198 3.37053
130 3 6.63692 2.78005 4.51101
131 1 7.2113 2.52812 5.33455
132 1 7.2021 2.41872 3.77581
133 3 12.3624 6.59583 0.664424
134 1 12.691 5.6308 0.564724
135 1 11.5511 6.52321 0.110426
136 3 9.2396 13.5737 9.35472
137 1 8.9819 12.9547 8.63631
138 1 8.55311 14.2377 9.24053
139 3 8.08188 4.8913 8.36718
140 1 7.19856 5.31975 8.48888
141 1 8.35981 4.6797 9.29625
142 3 4.76808 0.806462 4.74178
143 1 4.26917 0.943645 5.57372
144 1 5.3137 1.63927 4.54256
145 3 4.52807 2.41493 2.12158
146 1 4.5583 1.46095 2.2799
147 1 4.12333 2.47218 1.20432
148 3 7.65517 5.42943 5.29472
149 1 7.42393 5.10221 4.41893
150 1 8.31143 6.12218 5.25413
151 3 11.6563 14.6923 7.70431
152 1 12.5695 14.6298 7.36617
153 1 11.6151 13.989 8.4878
154 3 4.56222 10.3726 8.88179
155 1 3.83082 10.355 9.49163
156 1 4.31865 9.90779 8.03226
157 3 10.3322 6.15834 15.2052
158 1 9.70706 5.99177 0.423776
159 1 10.2874 5.28221 14.7452
160 3 1.27684 5.48059 13.8801
161 1 1.90314 5.37556 13.0726
162 1 1.33076 6.42037 14.1077
163 3 6.38611 2.9773 11.043
164 1 7.17719 3.59847 11.0454
165 1 6.39407 2.46818 11.828
166 3 5.56795 6.38846 6.7131
167 1 5.11488 7.23277 6.42805
168 1 6.32592 6.17784 6.11174
169 3 7.08616 0.74067 8.83749
170 1 6.47099 0.952303 9.6047
171 1 6.54096 0.82278 7.99683
172 3 14.405 12.9927 8.95207
173 1 14.6939 13.9539 9.11012
174 1 14.1658 12.9646 8.02635
175 3 6.12902 5.24245 2.35425
176 1 6.13867 4.43512 2.92186
177 1 5.9672 5.94266 2.97968
178 3 9.03113 11.7094 12.8369
179 1 9.04963 11.9693 13.7518
180 1 9.86291 12.1648 12.5902
181 3 15.227 9.67181 12.8777
182 1 15.1073 9.08293 13.6062
183 1 14.6914 10.4609 12.99
184 3 1.28442 12.8099 11.986
185 1 1.95582 13.4218 11.6712
186 1 0.418356 13.0893 11.6809
187 3 9.20657 0.372229 14.7053
188 1 9.05026 0.797437 0.0100059
189 1 10.0993 0.587622 14.401
190 3 9.49216 12.0211 3.41165
191 1 9.13644 12.1599 4.36104
192 1 9.86646 11.1148 3.41905
193 3 8.36837 12.2096 6.92232
194 1 7.84357 11.4055 7.16999
195 1 7.72287 12.7811 6.48075
196 3 2.99328 8.39454 11.1527
197 1 2.92997 7.46789 11.4986
198 1 3.04495 8.93797 11.9844
199 3 12.4172 5.65112 11.9239
200 1 12.5123 6.49193 12.3738
201 1 13.2346 5.48986 11.4943
202 3 13.7559 1.31806 10.8294
203 1 14.481 1.48964 10.1113
204 1 13.9881 1.85418 11.6105
205 3 4.39516 11.4296 5.95629
206 1 3.59386 11.5591 6.50748
207 1 4.09448 11.558 5.01924
208 3 3.91395 4.49068 7.39295
209 1 3.24462 4.31788 6.65737
210 1 4.45436 5.27118 7.16734
211 3 13.7895 12.888 6.3845
212 1 14.4062 13.3075 5.70456
213 1 13.0152 12.7809 5.74811
214 3 11.3092 13.1503 12.062
215 1 12.074 12.7921 12.5412
216 1 11.4317 12.9099 11.0964
217 3 3.54375 0.657977 12.3899
218 1 3.75426 0.157753 11.5999
219 1 4.43296 0.942453 12.7372
220 3 7.54129 7.50884 14.7568
221 1 7.07447 8.0599 14.0918
222 1 6.90901 7.47061 15.4742
223 3 1.36394 8.14684 15.2917
224 1 2.03139 8.0279 0.45365
225 1 1.68589 8.91185 14.8355
226 3 3.71564 7.20417 8.77324
227 1 3.67071 7.885 8.11265
228 1 3.45129 7.63557 9.58098
229 3 12.9192 7.76335 8.64432
230 1 12.0334 7.35051 8.94754
231 1 13.096 8.57118 9.10478
232 3 11.9383 3.9379 3.52342
233 1 11.4604 3.47091 4.25313
234 1 11.6904 4.90726 3.59498
235 3 3.99891 3.36731 14.6536
236 1 3.89052 4.23655 15.1391
237 1 3.6327 3.50316 13.773
238 3 15.057 14.6223 12.3317
239 1 0.0172299 15.2388 12.9379
240 1 14.3246 15.0859 11.9763
241 3 6.13747 6.61707 9.95382
242 1 6.67701 7.38038 9.7429
243 1 5.26362 6.75234 9.42007
244 3 3.54099 1.0901 7.02295
245 1 2.94328 1.78995 6.54829
246 1 3.815 1.46327 7.9103
247 3 14.4476 3.89383 3.62103
248 1 14.7894 4.72405 3.18008
249 1 13.4788 4.01391 3.47676
250 3 11.0439 6.3994 9.67395
251 1 11.2714 6.30475 10.645
252 1 11.3688 5.56473 9.28655
253 3 14.0124 8.5388 0.64775
254 1 13.6269 7.73126 1.00244
255 1 14.9911 8.45417 0.788186
256 3 9.19433 14.5697 5.90474
257 1 9.81007 14.3326 6.59996
258 1 8.9886 15.5184 6.05796
259 3 0.944876 6.87478 6.11468
260 1 1.05544 7.66911 6.63265
261 1 1.08957 6.12343 6.7636
262 3 1.3405 5.26478 8.19433
263 1 0.87462 5.79842 8.88274
264 1 2.31403 5.40005 8.34806
265 3 12.3954 0.913982 0.790865
266 1 12.4405 15.4543 0.906769
267 1 11.7544 1.21081 1.42913
268 3 10.2694 2.99479 0.547935
269 1 11.0034 3.12126 1.14253
270 1 10.739 3.15545 15.2026
271 3 0.647865 14.3085 4.46924
272 1 0.205627 15.11 4.12447
273 1 0.994795 14.4554 5.34539
274 3 9.78931 8.7645 12.3886
275 1 10.2658 8.18069 12.9874
276 1 8.82854 8.78079 12.6192
277 3 15.1993 6.45396 10.1161
278 1 14.6017 7.01464 9.52826
279 1 0.264379 7.06602 10.5534
280 3 9.18282 7.91329 2.99741
281 1 9.14098 6.97806 2.71101
282 1 9.20557 8.44971 2.12277
283 3 5.16599 5.33506 12.0211
284 1 5.3226 4.6013 11.4419
285 1 5.5927 6.00813 11.388
286 3 3.60028 5.66799 1.02779
287 1 4.43854 5.72221 1.5085
288 1 3.64967 6.31649 0.341029
289 3 1.80176 12.1259 0.187723
290 1 1.71187 11.9978 1.15569
291 1 2.43086 11.4554 15.4821
292 3 13.8082 10.1225 9.79298
293 1 14.4383 10.8538 9.85828
294 1 12.9309 10.468 9.6748
295 3 13.6388 10.314 3.44885
296 1 13.9612 9.50169 3.91359
297 1 13.7785 10.075 2.50194
298 3 10.5785 2.77858 12.8206
299 1 10.8159 1.88441 12.867
300 1 11.3367 3.29097 12.5119
301 3 8.25378 1.32297 2.38526
302 1 8.11926 2.07815 1.80767
303 1 7.53462 0.762974 2.17262
304 3 11.1777 8.85281 6.7571
305 1 11.9863 8.50983 7.15288
306 1 11.2529 9.12469 5.85484
307 3 2.12157 3.1421 5.77635
308 1 2.34443 3.32564 4.82727
309 1 1.20396 3.42996 5.93604
310 3 11.7475 0.253556 14.2404
311 1 11.7149 14.8266 14.0041
312 1 12.2766 0.2369 15.1069
313 3 9.32682 9.59558 0.464491
314 1 10.2402 9.74231 0.107274
315 1 8.93542 8.87262 15.4102
316 3 3.89149 14.1066 14.3207
317 1 3.83908 14.7179 13.5519
318 1 2.97999 13.7546 14.4386
319 3 10.6571 10.2707 8.95826
320 1 10.7227 9.86932 8.05411
321 1 10.0301 9.78862 9.52287
322 3 9.17067 2.20214 9.8751
323 1 8.37057 1.86702 9.36061
324 1 9.1785 1.5739 10.6486
325 3 3.72552 14.2112 2.78571
326 1 3.53407 13.334 3.08613
327 1 3.70704 14.7892 3.51755
328 3 14.9691 3.42853 13.5937
329 1 0.0271249 2.65649 13.9562
330 1 15.3566 4.30072 13.7916
331 3 12.5816 8.18625 12.9296
332 1 13.0613 8.67695 12.214
333 1 12.9781 8.37718 13.7811
334 3 15.186 1.28873 2.8052
335 1 15.2192 2.27414 2.96216
336 1 14.3341 1.17535 2.2756
337 3 11.1871 10.4963 14.6707
338 1 10.6901 10.1931 13.8563
339 1 10.8615 11.3954 14.7952
340 3 6.37729 10.279 15.0509
341 1 5.81046 10.8251 14.4488
342 1 6.40548 10.7662 0.354966
343 3 14.8857 2.2592 9.08931
344 1 14.5495 2.61567 8.23905
345 1 15.402 3.03347 9.40977
346 3 14.0672 11.3981 0.200187
347 1 13.8864 10.4522 15.4171
348 1 15.0674 11.5626 0.022798
349 3 10.5498 2.55307 5.30471
350 1 10.6749 1.70672 4.80276
351 1 11.1594 2.51171 6.01584
352 3 3.91385 8.76874 6.35954
353 1 4.18581 9.70051 6.0188
354 1 3.32241 8.59295 5.63086
355 3 9.75822 12.5889 0.715138
356 1 9.18898 12.2303 1.41224
357 1 9.42878 13.4785 0.420133
358 3 8.93239 8.32335 9.93174
359 1 9.44786 7.53038 9.75035
360 1 9.19456 8.62055 10.8332
361 3 2.09686 11.6736 7.4695
362 1 1.36643 11.1301 7.11952
363 1 2.07869 11.4813 8.4358
364 3 2.56459 6.44925 3.96622
365 1 2.76015 5.48079 3.75829
366 1 2.21856 6.48812 4.88654
367 3 2.90166 14.5715 10.5238
368 1 3.3368 14.0904 9.7824
369 1 2.10547 15.0241 10.1262
370 3 2.55211 5.63955 11.691
371 1 3.53379 5.52957 11.6252
372 1 2.14036 4.86959 11.2912
373 3 8.62392 0.38557 11.9405
374 1 9.04821 15.1144 11.4706
375 1 8.86759 0.477081 12.9307
376 3 5.74335 13.6429 6.50514
377 1 5.33472 12.831 6.06736
378 1 5.61976 14.3275 5.82622
379 3 6.30879 0.492494 13.2459
380 1 6.77837 0.910386 13.9413
381 1 6.91153 15.3742 12.8592
382 3 12.3983 13.7412 1.83777
383 1 13.0475 13.1479 1.47771
384 1 11.5648 13.533 1.31073
385 1 10.4815 1.96543 9.18134
ITEM: TIMESTEP
10000
ITEM: NUMBER OF ATOMS
385
ITEM: BOX BOUNDS pp pp pp
0.0000000000000000e+00 1.5526350000000001e+01
0.0000000000000000e+00 1.5526350000000001e+01
0.0000000000000000e+00 1.5526350000000001e+01
ITEM: ATOMS id type x y z
1 3 14.4781 9.33372 1.61889
2 1 14.0218 8.8218 2.32317
3 1 13.8807 9.29411 0.874528
4 3 1.302 1.89937 6.44853
5 1 1.89172 1.35713 5.87198
6 1 1.4363 1.43845 7.27332
7 3 11.1878 3.04317 6.00378
8 1 11.6145 2.82428 6.80044
9 1 10.5537 2.3248 5.89881
10 3 8.37384 12.767 12.7666
11 1 7.89507 13.6434 12.9603
12 1 8.31191 12.4661 11.8814
13 3 13.3093 11.6949 10.8326
14 1 12.848 10.9342 11.1951
15 1 12.6257 12.0414 10.2125
16 3 7.99189 8.21477 10.1608
17 1 8.75347 7.93908 9.65769
18 1 8.15649 7.92084 11.035
19 3 10.6943 12.2069 13.943
20 1 9.96931 12.5956 13.4405
21 1 11.4607 12.4943 13.5236
22 3 7.4326 7.44607 2.83327
23 1 7.13453 8.11809 3.4792
24 1 7.67373 7.93154 2.06004
25 3 6.41487 8.40405 5.27754
26 1 6.61411 8.82211 6.14114
27 1 5.7526 7.74918 5.551
28 3 5.44882 10.4201 10.9169
29 1 4.74777 10.9523 10.502
30 1 5.02859 9.53574 11.2042
31 3 8.24575 8.56199 0.401602
32 1 7.78919 8.90418 15.1423
33 1 9.18498 8.87129 0.370321
34 3 15.4869 3.36096 2.16252
35 1 15.1554 3.3123 3.0589
36 1 14.9001 2.7778 1.63235
37 3 14.5522 15.1156 4.93217
38 1 14.6668 14.3569 5.5664
39 1 14.9323 0.352545 5.43549
40 3 4.36383 8.1872 12.4008
41 1 4.3964 8.3966 13.3735
42 1 4.26975 7.25008 12.2724
43 3 5.27544 11.5801 1.52488
44 1 5.08475 11.0476 2.32723
45 1 6.25506 11.4495 1.38252
46 3 4.7996 14.7075 11.6718
47 1 4.50376 0.0715865 11.5574
48 1 4.7673 14.4467 12.596
49 3 15.0959 9.41351 5.0052
50 1 0.281295 9.84097 4.40908
51 1 14.6738 8.72636 4.48304
52 3 11.7955 0.787714 12.8301
53 1 12.7787 0.876397 13.1578
54 1 11.738 15.388 12.6119
55 3 1.5808 9.88368 1.12958
56 1 2.10727 9.57867 1.89732
57 1 0.684343 9.59004 1.19054
58 3 6.87183 14.2038 9.84771
59 1 7.17019 13.2735 9.90056
60 1 6.32788 14.4645 10.596
61 3 2.30657 9.95855 11.9191
62 1 2.60351 9.02226 11.9593
63 1 2.6996 10.3494 12.7211
64 3 9.06262 6.66652 5.48746
65 1 8.94632 6.3607 4.56096
66 1 8.14519 6.55727 5.79741
67 3 2.30104 11.9867 15.4184
68 1 2.2916 11.0967 0.313065
69 1 2.33511 12.684 0.60737
70 3 15.1097 14.4384 2.35421
71 1 14.639 13.58 2.19822
72 1 14.8199 14.7383 3.27678
73 3 3.8828 0.454352 1.81872
74 1 3.74964 1.09188 1.05558
75 1 3.51291 15.1147 1.72633
76 3 10.486 10.8712 10.0688
77 1 10.6262 10.329 10.8474
78 1 10.7026 10.4086 9.2703
79 3 4.43425 10.5254 3.82425
80 1 3.93256 9.6899 3.69055
81 1 3.77699 11.2213 3.73256
82 3 0.320514 2.82128 11.7825
83 1 0.546664 2.92079 10.8044
84 1 15.0128 3.36212 11.7981
85 3 2.81011 4.14834 10.2575
86 1 3.45634 4.69618 10.7765
87 1 3.0455 4.1969 9.24239
88 3 14.3966 0.921446 13.5292
89 1 14.7439 0.0576088 13.2134
90 1 14.8543 1.54496 12.8543
91 3 11.3961 12.6453 4.73814
92 1 10.5046 12.6887 5.16322
93 1 11.5979 13.5707 4.49867
94 3 8.82175 3.84787 11.9804
95 1 9.61152 3.38327 11.7743
96 1 8.83246 4.61028 11.4121
97 3 14.0774 7.3042 3.51998
98 1 13.2903 6.76957 3.70106
99 1 14.5972 6.81022 2.8456
100 3 8.50715 4.27775 3.5033
101 1 9.52748 4.19607 3.36285
102 1 8.1705 3.55993 4.09458
103 3 2.00024 11.6907 3.8211
104 1 1.88115 12.3023 4.59767
105 1 1.53868 12.0131 3.00328
106 3 3.16038 0.0853696 5.17694
107 1 3.83968 0.682445 5.58626
108 1 3.4064 15.4638 4.25829
109 3 8.95081 14.4876 7.78603
110 1 9.61592 14.1731 8.37738
111 1 8.51837 13.6859 7.5188
112 3 4.52195 13.0907 14.1211
113 1 5.11885 12.3806 13.9049
114 1 3.6588 12.6186 14.291
115 3 13.487 4.53112 10.1438
116 1 13.3322 4.48591 9.14965
117 1 14.3813 4.90073 10.3227
118 3 9.30531 15.027 1.29319
119 1 9.4484 15.4812 0.467812
120 1 10.0692 14.4479 1.46653
121 3 6.545 14.3822 0.37655
122 1 5.8823 13.7011 0.153663
123 1 7.30429 13.9822 0.818217
124 3 11.8788 1.48965 7.9531
125 1 11.4595 1.77036 8.7497
126 1 12.5025 0.808403 8.29024
127 3 2.65113 2.91946 2.51147
128 1 2.86719 1.99663 2.6122
129 1 1.68758 3.0108 2.36648
130 3 7.91666 13.9833 4.25871
131 1 8.09767 13.261 3.62989
132 1 7.54768 14.6355 3.6727
133 3 9.93417 6.20869 1.48076
134 1 9.04982 6.04007 1.81192
135 1 10.0708 7.09204 1.79611
136 3 7.74319 1.31895 8.35468
137 1 8.2914 1.94894 7.86643
138 1 8.17476 0.462712 8.27459
139 3 7.17909 1.93123 10.9849
140 1 7.41853 1.93039 10.0153
141 1 7.61907 2.62499 11.5165
142 3 4.63493 13.6143 3.73564
143 1 5.13996 12.98 3.20228
144 1 4.97325 13.4924 4.6274
145 3 7.57426 4.12425 1.11428
146 1 6.8228 3.50268 1.00982
147 1 8.01582 4.19259 2.56123
148 3 9.65909 7.60501 7.93139
149 1 9.50326 7.07054 7.15889
150 1 10.2736 8.23633 7.65147
151 3 10.7968 13.6073 9.90735
152 1 10.2526 14.207 10.5149
153 1 10.6531 12.6994 10.1962
154 3 4.24259 8.38535 8.97939
155 1 3.31088 8.00744 9.23181
156 1 4.14285 8.94465 8.24698
157 3 10.3293 7.03926 14.292
158 1 10.0873 6.80721 15.1443
159 1 11.2988 7.2403 14.302
160 3 2.09884 5.22128 13.8445
161 1 2.68691 4.57617 13.5439
162 1 2.70757 5.89591 14.4165
163 3 9.76764 1.10102 14.7223
164 1 9.63297 2.06899 14.6298
165 1 10.39 0.905202 13.9422
166 3 4.10615 6.83432 5.70971
167 1 3.98529 5.94333 5.30188
168 1 3.44322 6.90094 6.43866
169 3 9.3154 3.7164 8.00358
170 1 10.0593 3.78101 7.34257
171 1 8.60987 4.32475 7.70696
172 3 11.5396 9.45563 7.75262
173 1 12.0021 10.0992 7.19879
174 1 12.1943 8.88851 8.18724
175 3 4.93686 6.12926 1.91495
176 1 5.59676 6.76237 2.27011
177 1 5.00946 5.48752 2.64027
178 3 11.1487 12.5818 1.29161
179 1 10.3152 12.3472 1.70943
180 1 10.9378 12.5636 0.329221
181 3 13.4217 14.7664 8.74362
182 1 12.6648 14.319 9.0899
183 1 14.0658 14.9041 9.45541
184 3 3.48097 12.7917 10.2753
185 1 2.8671 12.166 10.6435
186 1 3.72386 13.5505 10.8027
187 3 13.1813 3.38076 13.419
188 1 12.3333 3.63584 13.0026
189 1 13.0233 2.54899 13.857
190 3 7.52064 9.78615 7.59601
191 1 7.35632 9.26533 8.40149
192 1 7.50002 10.734 7.79999
193 3 7.20944 12.5664 6.84738
194 1 6.32269 12.3898 6.99534
195 1 7.3316 12.8768 5.94087
196 3 4.84127 5.80398 11.5269
197 1 5.41652 6.01732 10.7821
198 1 5.31337 5.38609 12.2393
199 3 14.7886 5.67619 13.428
200 1 14.2424 4.84022 13.38
201 1 0.207625 5.42668 13.5983
202 3 2.40557 1.88614 13.1244
203 1 3.17751 1.56189 12.6962
204 1 1.86576 2.34148 12.4444
205 3 2.08619 13.2824 6.00712
206 1 1.16622 13.2602 6.34372
207 1 2.29481 14.2107 5.87325
208 3 7.2163 2.42761 4.80519
209 1 7.9518 1.85379 5.06494
210 1 6.86867 1.97201 4.03566
211 3 13.2738 11.1821 6.24362
212 1 12.6405 11.7161 5.71555
213 1 13.7346 10.5393 5.67802
214 3 11.0979 2.61652 10.7603
215 1 11.3964 1.9657 11.4051
216 1 11.8613 3.20098 10.5728
217 3 4.46302 1.91192 11.1966
218 1 5.41826 2.05956 11.0796
219 1 4.08491 2.74682 10.816
220 3 6.32351 5.41787 13.8866
221 1 6.31892 5.86676 14.743
222 1 6.37876 4.43656 14.0901
223 3 4.87204 9.65 14.865
224 1 5.67478 9.86692 14.371
225 1 4.87958 10.2844 0.0983739
226 3 12.9687 5.11957 7.4304
227 1 13.6604 4.76903 6.83587
228 1 13.1495 6.02284 7.77378
229 3 11.5809 9.83321 12.2818
230 1 12.1449 9.02254 12.2752
231 1 11.7077 10.1144 13.1934
232 3 10.9219 3.98449 3.23513
233 1 11.2627 3.09347 2.99864
234 1 11.2156 4.2276 4.15405
235 3 6.51391 2.68144 14.216
236 1 5.52391 2.47208 14.4579
237 1 7.01031 1.93851 13.9085
238 3 1.7625 0.768213 8.92975
239 1 1.51119 0.0225918 9.4257
240 1 2.74231 0.800696 9.12125
241 3 6.94589 4.92615 7.07227
242 1 6.54149 5.46379 7.79908
243 1 6.51264 4.06657 7.02303
244 3 14.9483 13.289 6.87487
245 1 14.5409 13.8513 7.57677
246 1 14.326 12.4342 6.68353
247 3 0.487766 6.13728 2.05916
248 1 0.952249 6.56876 1.29655
249 1 0.391324 5.21199 1.92108
250 3 7.98031 7.34982 12.6802
251 1 8.87528 7.16501 12.9637
252 1 7.42489 6.81861 13.2139
253 3 3.28802 7.09116 0.105163
254 1 3.81642 7.88318 15.4944
255 1 3.77684 6.48204 0.720527
256 3 3.50848 9.67238 6.83734
257 1 3.69677 9.60967 5.87552
258 1 2.60684 10.0275 6.88586
259 3 0.339078 9.59886 7.65459
260 1 0.0623221 9.29324 6.77361
261 1 0.0387265 10.4871 7.79666
262 3 0.474701 5.59588 10.6239
263 1 1.22395 4.95684 10.6948
264 1 0.209061 5.78292 11.5334
265 3 11.7375 1.53614 1.9769
266 1 12.5628 1.40213 1.43721
267 1 11.1227 1.69655 1.29593
268 3 11.4952 5.32205 12.23
269 1 11.0699 5.75213 12.9687
270 1 10.9823 5.45117 11.3811
271 3 11.9547 15.1107 4.02998
272 1 11.8272 0.104102 3.20925
273 1 12.8339 15.2998 4.4406
274 3 13.5931 13.6604 12.8617
275 1 13.3658 13.0319 12.1814
276 1 14.156 13.2543 13.4955
277 3 3.86082 2.58415 15.4324
278 1 3.19443 2.49675 14.732
279 1 3.52535 3.02147 0.706506
280 3 9.09322 9.50378 5.48441
281 1 9.05125 8.52867 5.44142
282 1 8.87137 9.83557 6.41525
283 3 5.26276 2.7231 6.42916
284 1 5.24013 1.97447 6.97169
285 1 6.07777 2.59902 5.82748
286 3 2.95108 8.23827 3.59734
287 1 3.0249 7.81766 4.47577
288 1 3.69716 7.74352 3.1207
289 3 13.8555 12.0297 1.75982
290 1 12.8994 12.1967 1.83419
291 1 13.9968 11.115 1.66591
292 3 15.2633 8.96951 13.4842
293 1 15.3344 9.81826 13.0408
294 1 0.552404 8.50581 13.3639
295 3 10.7872 9.05018 1.18647
296 1 11.3137 9.5228 0.547721
297 1 11.0533 9.54184 2.10988
298 3 13.1135 7.61331 11.8161
299 1 12.7556 6.71162 11.8143
300 1 13.8897 7.61147 12.3914
301 3 6.66813 0.983658 2.52819
302 1 5.8283 0.551275 2.19384
303 1 7.30603 0.627451 1.93845
304 3 13.4508 8.31358 9.10483
305 1 13.2628 8.26131 10.1109
306 1 14.1825 8.86164 8.8564
307 3 14.6427 3.29665 5.32199
308 1 15.3621 3.01663 5.91935
309 1 13.8886 2.69574 5.37495
310 3 9.11943 15.466 11.0888
311 1 8.54914 0.705803 11.4093
312 1 8.448 15.0664 10.47
313 3 7.1062 10.4807 13.3239
314 1 7.69359 11.2651 13.3453
315 1 6.75822 10.4152 12.4169
316 3 7.34234 15.297 13.4979
317 1 8.16583 0.24232 13.674
318 1 7.10378 15.059 14.4273
319 3 6.11495 6.54403 9.25256
320 1 6.90744 7.07492 9.57111
321 1 5.3162 7.22773 9.09538
322 3 9.9105 5.53317 9.92003
323 1 9.86228 6.33912 9.37835
324 1 12.7348 4.02069 0.809035
325 3 2.3238 13.7906 2.12365
326 1 1.4532 13.9942 2.42462
327 1 2.91676 13.548 2.8507
328 3 0.991235 14.9136 13.0636
329 1 1.25913 14.2386 13.6918
330 1 1.46072 0.188651 13.1789
331 3 13.0347 7.29128 14.7717
332 1 13.9465 7.08645 14.5321
333 1 12.8131 6.52571 15.325
334 3 14.2189 0.969648 0.697769
335 1 14.3255 0.799191 15.2891
336 1 14.4084 0.205257 1.25505
337 3 12.8164 9.98651 14.8747
338 1 13.5708 10.5628 14.5712
339 1 12.9864 8.99795 14.6664
340 3 8.20976 11.4559 1.69107
341 1 8.01602 11.3344 2.64013
342 1 8.39076 10.6086 1.28809
343 3 0.504916 14.4788 10.3473
344 1 0.614542 14.6608 11.3065
345 1 0.486597 13.5521 10.3375
346 3 15.0459 12.2918 14.7905
347 1 14.7221 12.3183 0.179375
348 1 0.394804 11.9667 14.8775
349 3 9.40878 0.87424 5.64342
350 1 9.3901 0.257205 6.38221
351 1 10.1773 0.615842 5.13238
352 3 3.04616 4.14681 7.64977
353 1 2.56676 3.40503 7.23137
354 1 3.92209 4.24499 7.28402
355 3 7.17338 10.9458 4.14941
356 1 7.68351 10.3266 4.64967
357 1 6.25617 10.6192 4.09541
358 3 7.78988 11.4523 10.343
359 1 7.00572 10.8691 10.1978
360 1 8.60011 11.0011 10.107
361 3 0.569519 11.5563 10.3234
362 1 1.08936 11.0167 10.9309
363 1 15.1487 11.334 10.4749
364 3 4.49518 4.47677 4.14012
365 1 4.94186 3.91006 4.79038
366 1 3.73696 3.98124 3.77351
367 3 4.71311 0.442918 7.73375
368 1 4.49383 15.1375 7.32619
369 1 5.57205 0.332867 8.1253
370 3 1.75009 8.0816 9.69488
371 1 1.242 7.33676 9.89031
372 1 1.21089 8.4129 8.96551
373 3 12.1881 4.76476 0.544335
374 1 11.5587 4.78908 1.22008
375 1 10.3135 4.61202 14.7639
376 3 4.27336 12.9979 7.40247
377 1 3.51433 12.8644 6.7721
378 1 3.93347 12.9246 8.3148
379 3 9.69955 3.87957 14.5799
380 1 8.10397 4.07842 0.324301
381 1 9.10085 4.02636 13.8207
382 3 11.158 9.96429 3.73061
383 1 11.4226 10.887 3.95732
384 1 10.3688 9.83752 4.35905
385 1 9.74212 4.75651 9.30937
ITEM: TIMESTEP
20000
ITEM: NUMBER OF ATOMS
385
ITEM: BOX BOUNDS pp pp pp
0.0000000000000000e+00 1.5526350000000001e+01
0.0000000000000000e+00 1.5526350000000001e+01
0.0000000000000000e+00 1.5526350000000001e+01
ITEM: ATOMS id type x y z
1 3 13.5657 11.2834 15.1954
2 1 12.8244 10.6649 15.1769
3 1 13.582 11.7448 0.562337
4 3 1.58071 3.89496 8.15141
5 1 1.75385 4.90171 8.13819
6 1 2.36755 3.55175 8.66454
7 3 12.9784 3.49479 7.23055
8 1 12.2825 3.01103 6.82765
9 1 12.9721 4.33691 6.70974
10 3 5.78896 14.3894 11.5833
11 1 5.71035 15.2928 11.2301
12 1 4.89303 14.0053 11.6715
13 3 15.354 11.2544 13.0992
14 1 15.3753 10.4092 12.6669
15 1 14.8618 11.1158 13.8943
16 3 3.36847 10.3069 7.46718
17 1 3.5487 10.6052 8.3816
18 1 2.66976 10.8488 7.05271
19 3 10.9414 12.9107 13.8069
20 1 10.8575 12.475 14.6504
21 1 10.2115 13.5561 13.72
22 3 10.2036 8.8094 0.868317
23 1 10.421 8.87834 1.85312
24 1 9.98031 9.77319 0.692255
25 3 4.66243 8.77947 3.40555
26 1 4.21378 8.01763 3.00204
27 1 4.50244 9.53687 2.875
28 3 6.94918 10.2958 11.7071
29 1 6.23894 10.6039 11.1584
30 1 6.59306 9.3588 11.9699
31 3 9.18059 5.36834 12.7831
32 1 8.43257 5.32024 13.4025
33 1 8.92153 6.08454 12.1771
34 3 1.87684 2.81966 3.96774
35 1 1.24887 3.37463 4.47648
36 1 1.42942 2.24377 3.30269
37 3 13.293 14.5818 4.22747
38 1 13.0287 14.0379 5.01932
39 1 13.0839 15.5123 4.43479
40 3 5.59134 7.69139 11.9101
41 1 5.61133 7.6664 10.9599
42 1 4.72577 8.08382 12.2056
43 3 7.72664 8.09868 2.05076
44 1 7.58589 8.97131 2.57368
45 1 8.50759 8.25423 1.58192
46 3 3.66541 14.4555 14.4578
47 1 3.79222 14.2092 15.3684
48 1 4.24609 15.1726 14.3107
49 3 13.7049 8.24278 5.36769
50 1 14.6576 8.09728 5.17832
51 1 13.3234 7.63887 6.0105
52 3 9.82185 15.0377 12.2524
53 1 10.7146 15.1713 11.9037
54 1 9.16889 0.163737 11.9199
55 3 13.9592 8.06331 0.0436703
56 1 14.2008 8.96966 15.6311
57 1 14.1852 7.75757 14.649
58 3 3.48674 12.9692 11.1788
59 1 2.80431 13.0894 11.9397
60 1 3.16023 13.5013 10.4179
61 3 1.73566 5.92489 0.276391
62 1 2.39883 5.35473 0.703902
63 1 0.891298 5.44893 0.279618
64 3 5.83238 8.24774 9.26451
65 1 6.27325 7.82276 8.51695
66 1 5.79659 9.23058 9.25131
67 3 2.59873 8.38824 14.8749
68 1 2.1174 7.61972 15.2578
69 1 2.33094 9.17257 15.3245
70 3 14.8244 1.42779 15.1505
71 1 0.257599 1.29045 14.9767
72 1 14.3724 0.570001 15.0767
73 3 6.60258 1.66231 1.53467
74 1 6.76396 0.732393 1.59052
75 1 6.78723 2.04638 2.42501
76 3 9.82318 11.0461 7.79443
77 1 9.80402 10.2627 8.32771
78 1 10.3067 11.7414 8.1988
79 3 0.160157 14.2462 3.0939
80 1 0.861479 14.7464 3.51339
81 1 14.9287 14.4439 3.65533
82 3 15.0671 15.4848 12.1556
83 1 15.4447 0.844392 12.1973
84 1 0.317316 14.8784 12.2825
85 3 1.6998 6.47193 7.94795
86 1 2.35395 6.90666 7.38829
87 1 0.88871 6.993 7.92332
88 3 1.99649 1.56079 14.8379
89 1 2.17671 1.0908 14.0466
90 1 2.54975 1.17599 0.022891
91 3 10.4769 11.9232 3.81991
92 1 9.87916 11.236 4.19526
93 1 10.986 12.2413 4.57323
94 3 9.54941 3.6642 10.9366
95 1 10.4933 3.34618 10.9704
96 1 9.52234 4.28454 11.7238
97 3 0.338826 6.20248 4.57445
98 1 0.277071 5.3166 5.088
99 1 14.9762 6.38704 4.18931
100 3 9.95489 1.89653 1.72403
101 1 10.3573 2.79498 1.8558
102 1 9.75448 1.67341 2.65344
103 3 1.13852 13.9299 7.11559
104 1 1.24295 13.0662 6.68374
105 1 0.881134 14.5799 6.37662
106 3 4.5224 0.49933 4.14129
107 1 5.01183 15.3281 4.62272
108 1 5.09795 1.31289 4.22915
109 3 9.22822 14.0678 7.85032
110 1 9.99072 13.7448 8.31282
111 1 8.55995 13.9533 8.60128
112 3 7.82853 12.8591 13.02
113 1 7.56534 13.0689 12.0418
114 1 7.26181 12.0959 13.1278
115 3 14.7253 3.83706 9.53623
116 1 0.129593 3.8743 9.15575
117 1 14.1517 3.57844 8.83127
118 3 9.51688 13.0858 0.941445
119 1 10.2206 13.6751 1.25846
120 1 9.45243 12.3711 1.52565
121 3 6.99078 15.084 14.2533
122 1 7.79922 0.164842 14.6054
123 1 7.39323 14.1636 14.0237
124 3 11.873 0.812816 8.81789
125 1 12.685 0.643248 8.31635
126 1 11.7157 0.10266 9.42801
127 3 2.57113 6.93538 3.22928
128 1 1.81818 6.84306 3.81631
129 1 2.17639 7.00196 2.35427
130 3 6.49141 9.34042 5.37611
131 1 6.49427 8.66932 6.03822
132 1 5.86573 9.04165 4.70981
133 3 9.91675 5.77496 3.89067
134 1 10.1265 6.75548 3.77219
135 1 9.02383 5.67759 3.50218
136 3 7.90321 1.92689 12.4115
137 1 7.92825 2.11389 13.364
138 1 8.4282 2.64846 11.8961
139 3 3.74472 2.61607 9.58305
140 1 4.09312 2.87242 10.4604
141 1 4.57794 2.45066 8.969
142 3 6.3103 11.7555 3.7519
143 1 6.24425 11.0151 4.40713
144 1 5.38287 12.0889 3.6083
145 3 7.06543 3.02844 14.8845
146 1 3.82007 4.37672 14.5638
147 1 6.72368 3.92908 14.8994
148 3 9.33648 10.0183 5.43963
149 1 8.36662 9.929 5.33758
150 1 9.47219 10.4098 6.33714
151 3 7.43261 13.1353 9.68137
152 1 7.22892 12.3094 9.21802
153 1 6.61274 13.5487 9.92155
154 3 3.87126 7.89305 6.29737
155 1 3.75034 8.67576 6.87037
156 1 3.28007 8.02667 5.48788
157 3 10.7884 7.20421 14.272
158 1 9.88589 7.03868 13.9884
159 1 10.704 7.64642 15.1842
160 3 1.01875 5.02666 12.7944
161 1 1.79382 4.64382 13.2395
162 1 0.368045 5.32918 13.4614
163 3 11.6241 14.9846 1.59995
164 1 12.0126 14.8838 2.46748
165 1 11.1982 0.29534 1.64332
166 3 5.11928 5.45756 7.54456
167 1 4.57908 4.79761 7.152
168 1 4.80685 6.32233 7.08094
169 3 10.8931 5.93682 9.05876
170 1 10.0352 6.11171 9.49602
171 1 10.9622 4.99651 9.29462
172 3 13.8022 10.6429 6.86937
173 1 13.6736 9.80222 6.37335
174 1 13.7851 10.3552 7.86246
175 3 7.65738 7.19913 7.18058
176 1 8.44909 7.56232 6.71816
177 1 7.47171 6.31971 6.7354
178 3 8.81032 10.8852 14.8015
179 1 8.8734 11.9015 14.8222
180 1 7.95196 10.6871 14.4295
181 3 11.5998 12.8661 9.01473
182 1 11.4062 12.6759 10.0058
183 1 12.4995 13.3012 8.96737
184 3 4.3084 10.6476 10.0404
185 1 3.90181 10.0502 10.6629
186 1 4.0554 11.5193 10.4081
187 3 11.7264 4.59364 14.6219
188 1 11.0183 5.28473 14.5078
189 1 11.3959 3.71848 14.282
190 3 3.1132 13.6211 3.80355
191 1 2.40239 13.0018 3.84127
192 1 3.24781 13.7609 4.75502
193 3 6.05823 14.6545 5.87134
194 1 6.55481 15.3387 6.28364
195 1 6.66719 13.9039 5.74766
196 3 6.79073 4.87932 9.66732
197 1 5.96153 5.11159 9.1757
198 1 6.43952 4.55095 10.5698
199 3 0.5013 2.496 11.9264
200 1 0.337277 3.2508 12.5503
201 1 -0.218219 2.41579 11.2731
202 3 15.3662 1.46671 2.18304
203 1 15.1661 1.57202 1.26886
204 1 15.1901 0.507387 2.33896
205 3 1.78621 0.3353 5.24747
206 1 1.65668 1.22164 5.44434
207 1 2.6804 0.34192 4.95166
208 3 9.75661 1.36235 4.47571
209 1 9.45638 0.430358 4.53423
210 1 9.4637 1.90637 5.26233
211 3 2.21508 9.55727 4.44279
212 1 3.0389 9.80916 4.04267
213 1 1.50693 9.42416 3.78556
214 3 12.1439 2.69207 10.9503
215 1 12.7928 3.30639 10.5673
216 1 12.0064 2.05172 10.2107
217 3 5.38126 3.51949 11.8239
218 1 4.75759 3.4953 12.6124
219 1 6.14728 2.98969 12.0386
220 3 6.68156 5.7617 13.8545
221 1 6.32268 6.05217 13.053
222 1 6.38596 6.48357 14.4546