ITEM: TIMESTEP
0
ITEM: NUMBER OF ATOMS
383
ITEM: BOX BOUNDS pp pp pp
0.0000000000000000e+00 1.5526350000000001e+01
0.0000000000000000e+00 1.5526350000000001e+01
0.0000000000000000e+00 1.5526350000000001e+01
ITEM: ATOMS id type x y z
1 3 2.3 6.28 1.13
2 1 1.37 6.26 1.5
3 1 2.31 5.89 0.21
4 3 2.25 2.75 9.961
5 1 2.6 2.58 10.881
6 1 1.37 2.3 9.841
7 3 0.19 3.68 6.47
8 1 14.8963 4.11 6.86
9 1 15.4364 2.95 5.84
10 3 5.69 12.751 11.651
11 1 4.76 12.681 11.281
12 1 5.8 13.641 12.091
13 3 0.02465 15.111 7.03
14 1 14.981 14.951 7.84
15 1 14.961 15.211 6.23
16 3 11.351 7.03 7.17
17 1 11.921 7.81 6.92
18 1 10.751 7.29 7.93
19 3 7.68 11.441 10.231
20 1 6.9 11.611 10.831
21 1 8.02 12.311 9.871
22 3 8.5 7.98 2.70465
23 1 8.46 8.74 3.35465
24 1 8.72 8.34 1.79465
25 3 6.85 10.121 6.65
26 1 7.54 9.961 7.35
27 1 6.12 10.691 7.03
28 3 3.35 14.351 10.611
29 1 2.57 14.041 10.081
30 1 3.93 14.931 10.041
31 3 4.38 3.92 14.991
32 1 5.2 3.36 15.081
33 1 3.57 3.34 15.031
34 3 2.31 1.60465 4.83
35 1 2.65 2.37465 5.37
36 1 2.75 1.60465 3.93
37 3 2.3 14.341 5.38
38 1 2.04 15.301 5.38
39 1 1.59 13.801 5.83
40 3 2.4 10.911 8.86
41 1 2.54 10.071 9.38
42 1 1.85 11.551 9.41
43 3 6.06 9.641 1.23
44 1 6.13 10.481 0.69
45 1 6.52 9.771 2.11
46 3 0.41465 1.14 14.801
47 1 0.23465 1.81 14.081
48 1 0.38465 1.6 0.16465
49 3 1.22 6.43 5.63
50 1 0.77 5.55 5.8
51 1 1.21 6.97 6.47
52 3 0.27 0.43465 1.17
53 1 0.08 15.001 1.38
54 1 15.4664 1.01465 1.92
55 3 1.36465 9.22 6.12
56 1 2.31465 8.93 6.2
57 1 1.28465 9.87 5.37
58 3 6.13 13.651 7.26
59 1 5.64 12.781 7.35
60 1 5.9 14.081 6.39
61 3 12.931 12.281 14.231
62 1 13.301 11.551 13.651
63 1 13.451 12.331 15.081
64 3 8.09 0.04 5.02
65 1 8.49 0.95 4.93
66 1 7.09 0.12 5.08
67 3 1.97 9.761 12.641
68 1 2.86 9.311 12.501
69 1 1.24 9.111 12.451
70 3 15.251 9.991 1.9
71 1 14.621 9.231 2.03
72 1 0.20465 10.171 2.76
73 3 3.17 2.51 2.48465
74 1 3.88 3.22 2.54465
75 1 2.29 2.9 2.76465
76 3 14.661 14.171 9.531
77 1 14.071 14.231 10.331
78 1 14.511 13.291 9.071
79 3 5.98 7.29 2.7
80 1 6.22 7.98 2.02
81 1 5.2 7.62 3.24
82 3 12.811 3.45 9.441
83 1 11.951 2.95 9.311
84 1 13.431 2.91 10.001
85 3 8.07 6.05 14.651
86 1 7.6 6.02 0.01465
87 1 7.56 5.5 13.991
88 3 9.731 8.9 0.19465
89 1 10.191 8.06 15.431
90 1 9.171 9.24 14.971
91 3 9.911 4.1 12.421
92 1 9.141 4.44 12.961
93 1 9.571 3.59 11.631
94 3 10.411 7.01 4.29
95 1 10.671 6.97 5.25
96 1 9.561 6.5 4.15
97 3 8.65 3.48 1.95
98 1 9.24 4.11 1.46
99 1 8.84 2.54 1.66
100 3 13.621 11.441 5.45
101 1 14.451 11.151 4.97
102 1 13.131 12.111 4.89
103 3 5.5 1.96 8.85
104 1 5.45 1.91 9.85
105 1 5.52 2.92 8.56
106 3 10.081 14.561 4.77
107 1 9.621 15.281 4.25
108 1 10.041 14.761 5.75
109 3 3.21 9.431 2.42
110 1 4.03 9.821 2
111 1 2.94 8.611 1.93
112 3 14.581 7.35 7.28
113 1 14.531 6.7 8.03
114 1 15.381 7.94 7.41
115 3 4.61 12.661 1.74465
116 1 4.11 12.671 0.88465
117 1 3.98 12.481 2.50465
118 3 11.111 2.23465 2.37
119 1 10.511 1.61465 2.87
120 1 11.421 1.79465 1.52
121 3 14.001 1.07 4.26
122 1 13.761 0.7 3.36
123 1 14.991 1.23 4.3
124 3 3.82 7 4.8
125 1 4.27 6.1 4.77
126 1 2.88 6.89 5.13
127 3 6.14 1.22 1.17
128 1 7.12 1 1.24
129 1 5.83 1.05 0.24
130 3 13.511 5.9 14.331
131 1 13.791 5.47 15.181
132 1 13.761 6.86 14.341
133 3 8.03 14.021 9.24
134 1 8.93 14.161 8.82
135 1 7.32 14.041 8.53
136 3 9.22 5.03 8.99
137 1 8.97 4.94 8.03
138 1 9.7 4.21 9.3
139 3 5.39 0.64 5.12
140 1 4.58 0.65 5.7
141 1 5.42 1.47 4.57
142 3 2.97 0.35 1.71
143 1 3.46 1.19 1.5
144 1 3.59 15.2264 2.16
145 3 9.351 2.36 4.8
146 1 8.871 2.77 4.02
147 1 10.341 2.34 4.61
148 3 12.271 0.17465 7.93
149 1 12.481 0.91465 7.28
150 1 12.951 0.17465 8.66
151 3 4.59 11.521 7.41
152 1 3.88 11.251 8.06
153 1 4.33 11.241 6.48
154 3 10.321 5.49 0.16
155 1 9.911 6.31 15.2964
156 1 10.961 5.75 0.89
157 3 0.78 5.56 13.861
158 1 1.7 5.55 13.451
159 1 0.72 6.3 14.531
160 3 5.61 2.22 11.471
161 1 5.99 1.38 11.841
162 1 4.73 2.41 11.911
163 3 8.66 4.54 6.42
164 1 8.34 5.26 5.8
165 1 8.9 3.73 5.89
166 3 10.171 0.39 7.53
167 1 9.451 0.44 6.84
168 1 9.931 15.2264 8.22
169 3 14.291 11.731 8.67
170 1 13.741 10.891 8.6
171 1 14.551 12.021 7.75
172 3 5.27 2.56 3.28
173 1 5.54 1.97 2.53
174 1 5.27 3.51 2.97
175 3 10.641 13.471 13.401
176 1 9.841 13.241 13.951
177 1 11.471 13.211 13.891
178 3 11.111 11.951 11.001
179 1 10.711 12.391 11.811
180 1 10.701 12.321 10.171
181 3 0.85465 10.991 10.791
182 1 0.90465 11.801 11.381
183 1 15.521 11.011 10.281
184 3 9.15 0.89 14.021
185 1 9.4 0.69 13.071
186 1 9.87 1.45 14.441
187 3 9.801 11.161 1.66465
188 1 8.811 11.221 1.76465
189 1 10.031 10.361 1.10465
190 3 7.05 10.501 3.68
191 1 6.91 10.571 4.67
192 1 7.89 9.991 3.5
193 3 4.1 8.13 12.511
194 1 4.96 8.25 13.011
195 1 3.68 7.26 12.781
196 3 12.741 3.86 12.621
197 1 12.951 4.6 13.261
198 1 11.851 4.03 12.191
199 3 0.64 0.11465 13.311
200 1 0.18 0.93465 12.971
201 1 1.62 0.30465 13.401
202 3 3.67 11.001 5.01
203 1 3.6 11.831 4.45
204 1 3.71 10.201 4.41
205 3 5.66 5.37 8.65
206 1 5.78 6.03 7.91
207 1 6.12 5.71 9.48
208 3 12.521 13.481 3.88
209 1 13.021 14.251 4.28
210 1 11.571 13.501 4.2
211 3 12.721 14.451 11.421
212 1 13.191 14.581 12.291
213 1 12.061 13.711 11.511
214 3 3.54 15.101 13.291
215 1 3.33 14.661 12.421
216 1 4.51 15.361 13.321
217 3 4.02 7.51 0.45465
218 1 4.7 8.06 15.511
219 1 4.42 6.63 0.72465
220 3 0.34465 7.79 1.17465
221 1 14.951 8.17 1.12465
222 1 0.94465 8.26 0.52465
223 3 5.73 8.7 10.291
224 1 6.17 9.59 10.201
225 1 5.1 8.7 11.061
226 3 13.601 8.62 10.451
227 1 12.851 8.62 9.791
228 1 13.971 7.7 10.541
229 3 12.091 5.25 2.75
230 1 12.221 4.41 3.29
231 1 11.801 5.99 3.35
232 3 3.07 2.13 12.311
233 1 2.84 2.5 13.211
234 1 2.77 1.18 12.251
235 3 0.37 13.101 12.821
236 1 0.9 12.611 13.501
237 1 0.59 14.081 12.871
238 3 7.32 6.34 10.641
239 1 7.91 6.08 9.881
240 1 7.04 7.3 10.531
241 3 0.69465 3.67 3.74
242 1 0.71465 2.91 4.38
243 1 0.21465 4.44 4.14
244 3 10.231 7.66 9.661
245 1 10.381 7.87 10.621
246 1 9.931 6.71 9.571
247 3 13.031 8.38 0.42
248 1 13.371 7.45 0.57
249 1 13.211 8.65 14.9964
250 3 10.681 13.331 8.49
251 1 10.751 12.491 7.94
252 1 11.301 14.021 8.13
253 3 3.19 8.1 9.491
254 1 4.12 8.46 9.541
255 1 3.13 7.25 10.011
256 3 3.39 5.09 10.061
257 1 2.87 4.26 9.891
258 1 4.16 5.14 9.421
259 3 11.381 3.8 1.25465
260 1 10.931 4.43 1.89465
261 1 12.311 4.11 1.08465
262 3 11.601 2.07 14.771
263 1 11.601 2.71 0.01465
264 1 11.881 2.55 13.941
265 3 0.08 13.261 2
266 1 14.6764 13.471 1.69
267 1 0.18 12.271 2.13
268 3 10.021 7.96 12.381
269 1 10.431 7.64 13.241
270 1 9.061 7.69 12.351
271 3 0.4 5.44 11.141
272 1 1.25 5.11 10.731
273 1 0.53 5.59 12.121
274 3 8.15 5.72 3.25
275 1 8.22 4.83 2.79
276 1 7.21 6.06 3.17
277 3 6.71 4.64 12.691
278 1 6.37 3.75 12.391
279 1 6.97 5.18 11.891
280 3 4.73 5 1.91
281 1 5.34 5.8 1.95
282 1 3.78 5.31 1.98
283 3 1.59 11.371 14.661
284 1 1.81 10.761 15.421
285 1 1.69 10.881 13.801
286 3 13.471 10.591 12.341
287 1 13.711 9.961 11.601
288 1 12.571 10.991 12.161
289 3 13.021 8.55 3.09
290 1 12.161 8.24 3.51
291 1 12.981 8.41 2.1
292 3 12.521 1.78465 11.281
293 1 13.361 1.83465 10.741
294 1 12.291 0.82465 11.461
295 3 9.03 0.86 1.33
296 1 9.54 0.87 0.47
297 1 9.59 0.44 2.04
298 3 12.801 9.27 6.72
299 1 13.401 8.46 6.74
300 1 13.201 9.96 6.12
301 3 2.63 3.26 7.2
302 1 1.84 3.77 6.86
303 1 2.54 3.11 8.18
304 3 11.941 0.59465 0.31
305 1 12.001 15.191 0.68
306 1 11.351 0.59465 15.0364
307 3 8.22 10.021 13.721
308 1 8.62 10.011 12.801
309 1 8.32 10.941 14.121
310 3 3.72 12.881 14.901
311 1 3.59 13.811 14.561
312 1 2.88 12.361 14.771
313 3 10.391 10.981 6.96
314 1 9.691 10.511 7.5
315 1 10.981 10.301 6.53
316 3 10.141 2.36 9.711
317 1 10.061 2 8.781
318 1 10.121 1.6 10.361
319 3 2.55 13.481 2.9
320 1 1.59 13.491 2.63
321 1 2.67 14.011 3.74
322 3 0.75 3.45 0.33
323 1 15.3564 3.17 0.04
324 1 1.06 4.22 15.2964
325 3 14.401 8.56 13.981
326 1 13.831 9.08 13.351
327 1 15.361 8.68 13.741
328 3 0.72 1.66 3.18
329 1 0.55 2.49 2.64
330 1 1.62 1.29 2.96
331 3 11.831 13.351 1.19
332 1 10.841 13.241 1.21
333 1 12.171 13.501 2.12
334 3 6.13 8.42 14.311
335 1 6.69 9.23 14.141
336 1 6.72 7.62 14.341
337 3 14.931 2.14465 9.591
338 1 15.261 2.78465 8.901
339 1 0.06465 2.08465 10.341
340 3 14.501 12.201 0.80465
341 1 14.411 12.101 1.79465
342 1 15.461 12.131 0.54465
343 3 12.251 3.25 4.49
344 1 12.901 2.51 4.38
345 1 12.451 3.75 5.33
346 3 5.94 7.45 6.52
347 1 6.44 8.3 6.33
348 1 5.06 7.47 6.04
349 3 8.59 13.741 0.16
350 1 8.13 13.891 1.04
351 1 9.03 14.591 15.3864
352 3 14.081 2.98465 1.67465
353 1 13.121 2.87465 1.40465
354 1 14.641 2.31465 1.19465
355 3 8.59 9.561 8.61
356 1 9.13 8.871 9.09
357 1 8.27 10.251 9.27
358 3 0.79 12.401 6.53
359 1 0.78 11.931 7.41
360 1 1.61 12.121 6.02
361 3 4.28 4.24 5.2
362 1 4.58 3.52 4.58
363 1 3.89 3.84 6.03
364 3 1.52465 14.871 11.041
365 1 0.59465 14.621 10.771
366 1 1.78465 14.371 11.861
367 3 3.17 5.47 12.801
368 1 3.55 4.88 13.521
369 1 3.57 5.21 11.921
370 3 10.011 0.34 11.541
371 1 9.381 15.1463 11.231
372 1 10.941 15.5064 11.541
373 3 7.7 13.301 3.01
374 1 7.24 12.431 3.18
375 1 8.61 13.271 3.42
376 3 6.18 0.14465 12.841
377 1 6.13 0.96465 13.411
378 1 7.07 0.11465 12.391
379 3 13.521 0.52 1.68
380 1 13.871 0.11 0.84
381 1 12.621 0.14 1.88
382 3 13.001 4.53 6.91
383 1 12.411 5.33 6.95
ITEM: TIMESTEP
10000
ITEM: NUMBER OF ATOMS
383
ITEM: BOX BOUNDS pp pp pp
0.0000000000000000e+00 1.5526350000000001e+01
0.0000000000000000e+00 1.5526350000000001e+01
0.0000000000000000e+00 1.5526350000000001e+01
ITEM: ATOMS id type x y z
1 3 2.26627 5.61734 1.01574
2 1 2.57171 5.97304 1.90777
3 1 1.48896 6.1515 0.774158
4 3 13.8867 3.16493 7.27649
5 1 13.2316 3.76844 7.58433
6 1 13.8726 3.4397 6.35134
7 3 11.1937 3.74435 3.14507
8 1 11.0906 2.98338 2.55546
9 1 10.8528 3.41407 4.01218
10 3 8.7682 9.76429 0.390538
11 1 9.53407 10.2122 15.5442
12 1 9.03407 9.46888 1.2647
13 3 0.456601 13.8676 3.51329
14 1 0.16817 14.5864 4.01518
15 1 15.2042 13.5722 2.98302
16 3 11.6902 6.41278 5.36304
17 1 10.8769 6.31249 4.90822
18 1 11.1871 5.74951 6.51346
19 3 8.34276 9.87596 10.3931
20 1 7.54206 9.42947 10.009
21 1 7.85064 10.4538 11.0089
22 3 9.37208 7.29678 15.0166
23 1 9.8421 7.73028 14.2963
24 1 8.95999 8.02579 15.5279
25 3 5.72988 8.4373 12.8511
26 1 5.71699 8.6189 11.8998
27 1 6.44865 7.77256 12.9172
28 3 6.41658 3.00661 5.10645
29 1 5.95932 2.91462 5.90406
30 1 6.7241 2.15082 4.68624
31 3 15.2107 5.51521 11.8564
32 1 15.2795 5.36932 10.8568
33 1 14.2722 5.72282 12.082
34 3 3.0672 2.55928 4.76863
35 1 2.14344 2.82799 4.68983
36 1 3.58462 3.11093 4.16969
37 3 5.99331 14.5005 7.32331
38 1 5.65925 15.3433 6.97806
39 1 5.40392 13.8324 6.8689
40 3 2.32477 11.844 6.81168
41 1 2.19463 11.4432 7.69171
42 1 1.62905 11.5793 6.18211
43 3 9.74402 8.64441 2.94403
44 1 10.6402 8.318 2.80127
45 1 9.28777 7.80478 3.09129
46 3 15.288 5.28606 9.10956
47 1 0.491424 5.81798 8.61147
48 1 14.9192 4.48879 8.64547
49 3 13.3258 4.28243 4.78961
50 1 12.7296 3.86922 4.11728
51 1 12.8338 5.15859 5.03202
52 3 0.603018 4.57396 4.12705
53 1 0.497929 4.3411 3.212
54 1 15.2553 4.39726 4.44599
55 3 14.2678 10.4452 2.8692
56 1 13.5883 11.1157 2.81313
57 1 14.7756 10.5784 2.0728
58 3 4.86334 12.682 5.81672
59 1 4.15494 12.1475 6.07602
60 1 4.55498 13.3898 5.22519
61 3 14.8744 14.138 12.6477
62 1 14.248 14.3096 11.9408
63 1 0.177112 14.5111 12.394
64 3 11.851 0.145384 11.5425
65 1 11.9845 0.650449 10.6625
66 1 12.0953 14.6973 11.4631
67 3 6.08581 10.4452 0.787085
68 1 6.40818 11.0843 1.48408
69 1 6.94748 10.1297 0.498585
70 3 0.534426 8.66105 4.5897
71 1 0.90459 9.12542 3.8134
72 1 1.23211 8.04271 4.80394
73 3 1.06838 4.07074 13.7098
74 1 0.370399 4.56852 13.2249
75 1 0.649308 3.2463 14.0137
76 3 2.77813 14.8357 9.37044
77 1 1.81768 14.7435 9.55342
78 1 2.97479 0.164108 9.80574
79 3 7.00885 9.00073 3.41496
80 1 6.22875 9.50824 3.60476
81 1 7.04127 8.65934 2.46763
82 3 10.8244 5.54758 7.45289
83 1 10.13 2.54029 6.34746
84 1 9.98713 6.07901 7.49512
85 3 4.34603 4.55487 15.0598
86 1 3.98401 5.33282 14.5703
87 1 3.66708 4.57229 0.208787
88 3 4.4431 8.09536 1.41092
89 1 4.09099 7.95674 0.506161
90 1 4.92754 8.95124 1.29313
91 3 11.089 5.14425 0.740471
92 1 11.051 4.96554 1.69717
93 1 10.5614 5.84913 0.403143
94 3 14.2725 7.90705 13.5769
95 1 13.5225 7.32488 13.4026
96 1 14.3747 8.3711 12.684
97 3 10.5597 12.1977 0.407423
98 1 9.68422 12.5968 0.137465
99 1 10.7113 12.4925 1.32708
100 3 11.79 10.7984 4.29912
101 1 12.4027 10.0875 4.67126
102 1 10.9298 10.4654 4.51963
103 3 6.33843 0.592859 9.8581
104 1 6.98153 1.21463 9.40632
105 1 6.15747 -0.0580833 9.08724
106 3 12.3916 0.575362 4.19454
107 1 13.093 0.942849 4.71317
108 1 12.2986 15.2086 4.50093
109 3 2.12718 6.38293 5.59189
110 1 2.8917 6.44643 4.98653
111 1 1.49624 5.83411 5.08912
112 3 1.3569 9.70084 8.51065
113 1 1.38262 9.84295 9.47263
114 1 0.490195 9.80504 8.08627
115 3 7.86919 11.9924 2.73938
116 1 8.08292 11.8914 3.68611
117 1 8.74049 11.7342 2.35202
118 3 15.5032 1.6811 14.4215
119 1 0.387501 0.840124 14.0973
120 1 14.5217 1.6348 14.28
121 3 11.736 1.66737 1.61684
122 1 12.3995 1.67179 0.863361
123 1 12.0264 1.05595 2.29795
124 3 6.47271 6.62057 5.17543
125 1 6.75299 7.49926 4.72423
126 1 5.82436 6.11782 4.62847
127 3 3.04174 1.31106 0.808901
128 1 2.80117 1.3141 15.4107
129 1 2.38869 1.87066 1.37163
130 3 10.7003 9.68991 12.2954
131 1 10.4327 10.4882 12.7477
132 1 9.9139 9.22197 11.865
133 3 5.39381 11.2333 8.77555
134 1 4.80351 11.3024 8.01501
135 1 5.08862 11.8744 9.46555
136 3 3.40134 6.35743 10.9289
137 1 2.89324 6.65048 10.1697
138 1 4.32974 6.19451 10.6415
139 3 4.31726 14.8399 4.10853
140 1 3.81368 14.4828 3.30287
141 1 3.61173 15.2754 4.57609
142 3 3.02491 14.1957 2.0795
143 1 2.03943 14.0581 2.21308
144 1 3.11784 14.876 1.39764
145 3 9.2623 0.0991208 3.0914
146 1 9.70694 0.890667 3.36149
147 1 8.27272 0.149383 3.34534
148 3 12.3226 1.52254 9.37269
149 1 12.5073 2.50736 9.49963
150 1 12.9445 1.08619 8.73257
151 3 6.95869 11.5562 11.9709
152 1 6.22669 11.1523 12.5126
153 1 6.79029 12.5344 11.8644
154 3 7.36492 7.30555 1.42847
155 1 7.70041 6.70874 0.759629
156 1 6.4249 7.17014 1.38191
157 3 1.4153 9.17808 1.9763
158 1 2.25729 8.7145 1.94615
159 1 0.794699 8.51523 1.63009
160 3 3.58537 1.68229 10.939
161 1 3.30175 2.609 10.787
162 1 4.53344 1.56291 10.6269
163 3 8.81903 5.74918 4.20153
164 1 8.02308 5.99456 4.71591
165 1 8.9428 4.83662 4.29839
166 3 9.86653 0.882639 7.74586
167 1 9.38005 0.00298839 7.61652
168 1 10.6798 0.796573 8.25329
169 3 13.8418 15.1462 7.68461
170 1 13.3947 14.6352 6.95338
171 1 14.4812 0.0510967 7.10266
172 3 8.49332 14.2485 7.54414
173 1 7.50349 14.2584 7.44862
174 1 8.66348 13.6515 8.39941
175 3 13.3831 14.1564 15.4844
176 1 13.0444 13.4841 14.8257
177 1 14.2926 14.2796 15.3035
178 3 13.9623 11.5139 9.66291
179 1 13.953 10.6009 9.9744
180 1 14.0172 11.3249 8.68887
181 3 4.87609 10.9862 13.6022
182 1 4.77739 9.98097 13.5754
183 1 5.10227 11.253 14.5306
184 3 7.80559 2.16297 14.7894
185 1 7.18347 1.96839 14.0597
186 1 8.59972 1.65343 14.6379
187 3 12.4625 12.1092 14.0769
188 1 11.5911 12.3487 14.5428
189 1 12.2216 12.2899 13.1171
190 3 5.74506 8.61362 9.77165
191 1 5.54247 7.98105 9.05266
192 1 5.47051 9.54025 9.58922
193 3 3.35912 4.06186 12.3328
194 1 2.5239 4.02471 12.8779
195 1 3.35141 4.94565 11.8687
196 3 9.83597 6.60581 11.5723
197 1 8.94324 6.36263 11.8807
198 1 9.76777 7.10329 10.769
199 3 2.00117 15.4678 13.1489
200 1 2.39571 0.379597 12.4
201 1 2.51227 14.6358 13.196
202 3 4.87894 6.45629 8.00756
203 1 5.70927 6.04796 7.66772
204 1 4.61675 6.99296 7.25036
205 3 7.55535 4.71675 7.13219
206 1 7.88347 3.93352 7.60081
207 1 7.37281 4.40599 6.24876
208 3 10.7881 13.419 3.04571
209 1 10.3158 14.2383 2.94614
210 1 10.3797 13.0625 3.82465
211 3 0.0546734 14.3232 9.92553
212 1 14.8786 14.3831 9.2919
213 1 0.17369 13.4592 10.2704
214 3 2.13577 14.8489 6.71555
215 1 2.09187 13.9107 6.97746
216 1 2.6198 15.3322 7.40966
217 3 3.5131 6.41482 3.22523
218 1 3.9534 5.58103 3.11069
219 1 3.95393 7.08517 2.57454
220 3 0.0754189 7.13733 0.459553
221 1 14.9045 6.74218 1.00458
222 1 15.3004 7.20094 15.0455
223 3 1.58017 7.5592 12.7128
224 1 2.38918 7.26176 12.2481
225 1 0.850782 6.91813 12.4893
226 3 13.0696 6.98238 9.16453
227 1 13.8622 6.39875 9.33191
228 1 12.5975 6.52663 8.4257
229 3 13.2287 9.69065 15.4173
230 1 13.7352 9.17883 14.7873
231 1 12.7709 10.4627 15.0241
232 3 1.3547 3.17233 1.76619
233 1 1.60521 3.88505 1.18584
234 1 0.602156 2.78715 1.37068
235 3 1.24031 12.0574 0.324007
236 1 1.00703 11.1982 15.5231
237 1 1.75571 12.548 15.2097
238 3 5.75461 4.64593 11.3054
239 1 5.04551 4.06981 11.668
240 1 6.32444 4.08276 10.7486
241 3 13.2114 8.50686 5.00386
242 1 13.9766 8.32886 4.44757
243 1 12.7204 7.5747 5.04946
244 3 10.0216 7.69997 9.1546
245 1 9.30687 8.34535 9.07053
246 1 10.6413 7.88923 8.45542
247 3 15.0579 11.1201 12.9565
248 1 14.3926 11.0405 13.6492
249 1 15.0219 12.0769 12.7615
250 3 12.1162 12.7953 11.3481
251 1 12.6745 12.314 10.7033
252 1 11.1988 12.8117 11.0198
253 3 3.51077 12.0292 10.7434
254 1 2.7219 11.5368 10.9823
255 1 3.32915 12.905 10.4714
256 3 1.811 6.7198 8.42792
257 1 2.09994 6.58716 7.44218
258 1 1.73279 7.73059 8.40172
259 3 9.39839 14.8182 12.949
260 1 9.67907 15.3386 13.7716
261 1 10.053 15.0171 12.2297
262 3 12.7382 0.864587 14.303
263 1 12.8098 15.5401 14.7302
264 1 12.5839 0.705403 13.3496
265 3 4.58894 10.0546 4.14361
266 1 4.68179 11.0072 4.22373
267 1 3.94855 10.0607 3.42566
268 3 7.35433 6.11941 12.8951
269 1 6.83441 5.51619 12.2795
270 1 7.46297 5.60636 13.7096
271 3 12.9837 8.98848 11.1122
272 1 12.6988 8.30091 10.4623
273 1 12.1247 9.21954 11.6012
274 3 11.4763 3.4188 13.9425
275 1 12.0441 2.64201 14.1257
276 1 11.1142 3.82631 14.754
277 3 5.66065 2.22547 1.16258
278 1 6.36243 2.28232 0.465953
279 1 4.84921 1.91432 0.721535
280 3 6.64246 0.729255 3.43685
281 1 5.86052 0.194272 3.74544
282 1 6.34715 1.27745 2.73422
283 3 8.06823 14.0217 0.577976
284 1 7.11025 14.2925 0.296505
285 1 8.04986 13.8175 1.53309
286 3 10.7394 10.6923 7.70263
287 1 10.443 9.84274 7.25895
288 1 11.5801 10.3637 8.05261
289 3 12.373 8.21087 2.28322
290 1 12.7867 8.89723 2.90859
291 1 12.5614 8.65916 1.41735
292 3 12.4541 4.28526 9.55394
293 1 12.3478 4.74303 10.368
294 1 11.7616 4.63762 8.93897
295 3 10.2204 12.9698 5.50896
296 1 9.66199 13.5711 6.07073
297 1 10.3888 12.1227 5.94925
298 3 13.8113 9.4542 7.64916
299 1 13.5608 9.14044 6.7555
300 1 13.5345 8.68587 8.16158
301 3 3.40405 3.74536 8.67106
302 1 2.48553 4.0538 8.43972
303 1 3.93348 4.52988 8.823
304 3 9.76916 0.489679 15.258
305 1 10.3092 0.987149 0.382944
306 1 9.18629 15.4118 0.288306
307 3 6.86584 14.3292 11.9064
308 1 6.785 14.9562 11.1498
309 1 7.79221 14.5274 12.1395
310 3 3.3316 13.2563 13.8587
311 1 4.1473 13.694 14.102
312 1 3.54957 12.4648 13.3873
313 3 8.86978 10.176 5.004
314 1 8.61715 9.7821 4.16445
315 1 8.24723 9.93464 5.74805
316 3 9.46118 3.6103 11.3219
317 1 9.95471 4.47893 11.1787
318 1 10.0109 3.35878 12.1245
319 3 4.26573 9.1637 6.5837
320 1 4.45419 9.34862 5.59784
321 1 3.30826 9.27968 6.5752
322 3 4.98805 4.18893 3.10764
323 1 5.30598 3.64203 2.31224
324 1 5.59663 3.82421 3.7559
325 3 0.311645 11.7096 5.25838
326 1 15.4346 10.9809 4.7072
327 1 0.37183 12.4347 4.60864
328 3 4.62939 1.97229 6.96358
329 1 4.1479 2.53398 7.62709
330 1 4.02673 2.20147 6.18482
331 3 13.3977 13.1187 2.85609
332 1 12.5258 13.2603 3.31218
333 1 13.2656 13.2611 1.91538
334 3 7.27417 4.93716 15.3295
335 1 7.72948 4.09884 15.2143
336 1 6.32882 4.56988 15.3752
337 3 0.0414777 0.661211 5.86194
338 1 0.91924 0.292251 6.05479
339 1 0.0593097 1.56938 5.85318
340 3 3.37501 11.5347 2.26624
341 1 3.45858 12.4828 2.25915
342 1 2.62966 11.2922 1.74981
343 3 10.1272 3.28674 5.71164
344 1 10.0811 4.03846 6.31069
345 1 11.0483 7.54723 6.04185
346 3 3.81166 7.56626 14.506
347 1 4.43031 7.77689 13.7877
348 1 2.93163 7.50819 14.0832
349 3 9.48488 12.0761 13.236
350 1 9.42497 13.057 13.4009
351 1 8.61264 11.6743 13.0992
352 3 13.5794 5.57111 2.19846
353 1 13.0078 5.18119 1.56283
354 1 13.0955 6.35909 2.47338
355 3 7.76201 10.2186 7.49092
356 1 6.87493 10.5593 7.83349
357 1 8.41296 10.3727 8.16025
358 3 1.4515 10.1563 11.2749
359 1 1.70506 9.42729 11.8942
360 1 0.667084 10.5736 11.7422
361 3 8.33339 3.45237 2.44759
362 1 7.50275 3.6642 2.86163
363 1 8.75198 4.31225 2.33413
364 3 12.8637 13.6299 5.83072
365 1 13.4054 12.8488 5.58725
366 1 11.8925 13.4942 5.66501
367 3 4.94537 2.25677 13.5206
368 1 4.55407 3.07251 13.9376
369 1 4.38065 2.07485 12.7364
370 3 8.28441 2.47572 9.13255
371 1 8.9388 1.85594 8.77968
372 1 8.72288 2.8326 9.94685
373 3 9.72218 12.5775 9.7865
374 1 9.084 12.1179 10.3657
375 1 10.0223 11.8457 9.12367
376 3 5.75909 14.6974 14.3789
377 1 5.33603 0.0503984 14.4719
378 1 6.29822 14.6667 13.5475
379 3 12.3076 5.83079 12.6513
380 1 12.0124 4.99508 12.9426
381 1 11.5066 6.3369 12.3284
382 3 10.4714 8.29853 6.41496
383 1 9.96684 8.6099 5.64293
ITEM: TIMESTEP
20000
ITEM: NUMBER OF ATOMS
383
ITEM: BOX BOUNDS pp pp pp
0.0000000000000000e+00 1.5526350000000001e+01
0.0000000000000000e+00 1.5526350000000001e+01
0.0000000000000000e+00 1.5526350000000001e+01
ITEM: ATOMS id type x y z
1 3 2.21089 11.6612 0.354131
2 1 1.90463 12.4654 0.797493
3 1 1.65256 11.4712 15.1648
4 3 0.0385395 8.24593 5.59615
5 1 15.3416 7.52172 4.98043
6 1 14.9076 8.88978 5.30105
7 3 12.499 1.06844 0.410479
8 1 13.1827 0.445216 15.5923
9 1 12.1247 1.46513 15.0889
10 3 7.41511 9.88519 2.57377
11 1 7.81835 9.30029 1.94905
12 1 7.34535 9.34877 3.38842
13 3 15.3776 4.25617 5.72083
14 1 14.5022 3.9689 6.00768
15 1 15.1957 4.84025 4.98351
16 3 11.4488 4.48573 3.36228
17 1 10.618 4.54969 2.90248
18 1 10.9218 3.24419 8.27103
19 3 9.89411 9.15632 8.84658
20 1 9.87605 10.1205 8.77029
21 1 10.7659 8.7412 8.89791
22 3 9.99486 6.03437 11.9206
23 1 10.1855 5.97184 10.9374
24 1 9.00857 5.93273 12.0537
25 3 9.25433 9.00708 11.8219
26 1 9.66651 8.25497 12.3143
27 1 9.11823 8.65287 10.9187
28 3 9.31493 2.18832 5.43969
29 1 10.248 2.33315 5.3573
30 1 8.93212 2.23751 4.56104
31 3 13.5049 4.10985 11.3365
32 1 13.9236 4.22844 10.4745
33 1 13.4084 5.01642 11.7845
34 3 1.48659 3.37548 8.48569
35 1 1.95004 3.15032 9.27946
36 1 1.91126 4.17205 8.14431
37 3 6.29513 0.146028 4.94459
38 1 5.99484 0.319995 5.88009
39 1 5.76479 14.9454 4.60095
40 3 2.49033 7.08029 2.41892
41 1 2.75893 6.81892 1.52002
42 1 2.61129 8.06522 2.45618
43 3 7.86644 8.61017 4.79127
44 1 7.25647 8.10375 5.35374
45 1 8.19821 9.31739 5.39943
46 3 1.72274 6.66217 9.51994
47 1 0.800565 6.3331 9.66094
48 1 2.27059 6.14027 10.1505
49 3 11.1113 0.352744 2.43909
50 1 11.6013 0.398507 1.54073
51 1 11.6885 0.265959 3.18255
52 3 14.9414 6.1886 3.83676
53 1 13.9407 6.48783 3.69367
54 1 15.4508 6.0695 3.01426
55 3 14.5962 10.2755 1.32083
56 1 14.6833 11.1672 1.04156
57 1 14.3896 10.2158 2.27827
58 3 6.00323 11.8368 5.58592
59 1 5.4299 12.6355 5.5938
60 1 5.56773 11.3356 4.84283
61 3 0.0930157 13.6687 9.54526
62 1 14.7727 13.4427 9.15786
63 1 0.151635 14.6551 9.58178
64 3 9.98193 2.05928 9.78504
65 1 10.0841 2.68364 10.4859
66 1 10.6262 1.32043 9.90103
67 3 2.45217 9.85364 2.41381
68 1 1.91285 10.3612 3.05635
69 1 2.22297 10.3709 1.54596
70 3 0.400284 8.24424 0.484024
71 1 0.243623 9.12158 0.860625
72 1 0.74163 7.64129 1.15782
73 3 1.4 8.51696 13.2478
74 1 1.41871 9.50632 13.2308
75 1 1.16345 8.26831 14.1699
76 3 4.50891 13.9226 6.88506
77 1 5.12848 14.5242 7.37046
78 1 3.85218 13.5749 7.54839
79 3 4.83552 10.9088 3.00032
80 1 5.51806 10.5818 2.43195
81 1 3.9462 10.6571 2.69806
82 3 11.2313 4.09361 7.8967
83 1 5.95757 0.506441 2.78622
84 1 10.4302 4.52749 7.61223
85 3 0.33491 5.23243 1.39507
86 1 0.541166 4.32063 1.64463
87 1 0.702062 5.31734 0.543258
88 3 6.19867 7.2069 1.40282
89 1 5.91203 7.41051 0.512518
90 1 5.82811 7.8405 2.02577
91 3 9.63757 3.69162 0.825917
92 1 10.6138 3.80903 0.80722
93 1 9.28637 4.57472 0.670476
94 3 12.9041 6.50992 12.6475
95 1 11.9616 6.62627 12.3875
96 1 12.9985 6.86949 13.5275
97 3 8.21223 15.0284 14.7106
98 1 8.97427 14.451 15.0162
99 1 7.63659 15.0829 15.5144
100 3 8.60462 10.8273 6.15573
101 1 7.69399 11.1875 6.19474
102 1 8.97246 10.9863 7.03067
103 3 5.63474 0.660871 7.73108
104 1 6.26115 0.58992 8.45494
105 1 5.31402 1.56603 7.79347
106 3 10.3963 10.7267 3.15806
107 1 10.4651 11.7017 3.19047
108 1 9.46754 10.5675 3.08208
109 3 2.51426 2.89935 5.54811
110 1 2.67547 3.51609 4.83628
111 1 1.58208 3.07137 5.79742
112 3 2.43274 9.29954 8.54015
113 1 2.34411 9.29257 7.58205
114 1 2.19347 8.4716 8.93221
115 3 5.89527 13.934 13.3885
116 1 6.44004 14.5363 13.8994
117 1 5.514 13.2393 13.9965
118 3 13.9293 14.4693 3.58048
119 1 13.875 15.3451 4.03431
120 1 14.1029 13.8648 4.34089
121 3 15.1923 1.66588 4.0031
122 1 15.151 2.5175 4.4859
123 1 14.8511 1.86066 3.09637
124 3 6.50691 4.97393 4.73014
125 1 5.9225 5.77432 4.88913
126 1 6.36705 4.7087 3.80807
127 3 2.68059 0.487067 6.51858
128 1 3.47641 0.0240944 6.79903
129 1 2.77779 1.34465 6.09659
130 3 9.0523 9.02563 0.0439093
131 1 8.7645 9.97169 15.4279
132 1 8.69173 8.37096 14.9696
133 3 5.4487 9.11658 8.62271
134 1 4.50251 9.09941 8.56157
135 1 5.72906 10.0647 8.63951
136 3 3.63265 7.03186 13.1218
137 1 2.79865 7.56824 13.0124
138 1 3.54121 6.30187 12.4752
139 3 2.64173 9.42821 5.69103
140 1 1.84231 8.90381 5.55841
141 1 2.42164 10.3621 5.64149
142 3 2.43561 14.308 4.07461
143 1 2.31767 14.964 4.8425
144 1 3.31901 14.4128 3.71857
145 3 7.40712 12.6534 1.92847
146 1 8.22724 12.9694 2.32204
147 1 7.22949 11.7638 2.29015
148 3 14.3578 4.41796 8.81116
149 1 15.2306 3.98567 8.6443
150 1 14.4837 5.26107 8.31984
151 3 5.63011 12.8449 10.9306
152 1 5.21666 12.1736 11.407
153 1 6.29707 13.1089 11.5537
154 3 9.52051 6.48165 3.28894
155 1 9.80534 7.38108 3.18255
156 1 8.89784 6.58196 4.00993
157 3 3.27475 5.94945 7.50533
158 1 2.63268 6.38139 8.06041
159 1 4.03164 5.71134 8.12332
160 3 5.94562 1.62973 12.377
161 1 6.67132 1.84431 12.9945
162 1 6.36685 1.23195 11.6019
163 3 12.6487 3.47461 5.54973
164 1 12.2058 3.79785 6.32502
165 1 12.2747 3.89728 4.72752
166 3 11.8532 0.70539 5.33566
167 1 12.3145 1.57241 5.41568
168 1 12.2858 0.115113 5.96694
169 3 11.8252 0.220626 9.8906
170 1 11.9772 14.8783 9.47376
171 1 12.3488 0.864994 9.33819
172 3 8.82171 14.5487 5.27107
173 1 9.14909 15.5413 5.26792
174 1 7.85207 14.6243 5.25759
175 3 14.8188 13.4321 12.1888
176 1 15.1918 13.5579 11.294
177 1 13.848 13.5197 12.1018
178 3 14.8654 13.1325 6.01127
179 1 15.3261 13.9301 6.35003
180 1 14.5046 12.519 6.64093
181 3 4.94985 12.3383 15.3377
182 1 4.00693 12.1438 15.3266
183 1 5.12954 12.5361 0.727884
184 3 8.15251 2.86914 14.188
185 1 8.94061 3.00957 14.7424
186 1 8.16598 3.56754 13.4636
187 3 8.23953 11.6945 15.1487
188 1 7.87508 12.0672 0.426652
189 1 9.0945 12.1377 14.9788
190 3 7.68211 4.87711 9.67623
191 1 7.89712 4.17373 8.9885
192 1 7.93296 5.7325 9.28776
193 3 2.5082 2.99879 15.2739
194 1 2.67312 2.42762 0.5638
195 1 1.66289 2.61753 15.0596
196 3 11.1667 6.26605 9.56214
197 1 11.491 5.51807 9.01591
198 1 11.9286 6.88788 9.61945
199 3 0.34483 0.897557 10.114
200 1 0.0969926 1.34782 9.35162
201 1 1.20447 1.18417 10.4399
202 3 9.15146 5.59349 6.4021
203 1 8.4998 5.2427 5.80196
204 1 8.72236 6.24312 6.99333
205 3 8.16884 2.80424 8.0413
206 1 9.01738 2.41917 8.40033
207 1 8.1566 2.78943 7.12426
208 3 11.6983 9.8746 6.25153
209 1 11.0044 10.2752 5.7043
210 1 11.6474 8.88113 6.30998
211 3 12.6978 13.3136 9.06983
212 1 12.4726 13.0468 8.12494
213 1 12.7907 12.4713 9.5358
214 3 0.0203141 0.291468 6.71693
215 1 15.5192 0.678658 5.82586
216 1 0.975458 0.379021 6.94549
217 3 2.75592 3.9508 2.95063
218 1 3.69096 3.99382 2.82547
219 1 2.41315 4.83529 2.7677
220 3 3.71888 -0.0138371 13.7668
221 1 4.15888 0.670912 14.2418
222 1 4.35071 14.86 13.4166
223 3 4.08565 10.566 12.0412
224 1 4.88412 10.1719 12.4696
225 1 3.69401 9.85663 11.5511
226 3 15.3768 10.0546 10.0884
227 1 0.641149 9.96165 9.52
228 1 15.3127 9.1937 10.5225
229 3 13.3291 7.36703 15.3287
230 1 14.2872 7.50053 0.0311276
231 1 12.8003 7.84532 0.453062
232 3 14.4039 2.49256 1.66285
233 1 14.9231 2.53536 0.861454
234 1 13.5311 2.13898 1.32854
235 3 10.5704 13.5575 15.0266
236 1 11.1937 13.5849 14.3325
237 1 11.1401 13.4397 0.250468
238 3 6.05829 7.30224 14.096
239 1 5.12655 7.29166 13.7864
240 1 6.38981 8.149 13.7958
241 3 12.6416 7.19172 3.43001
242 1 12.3985 7.35087 2.52455
243 1 11.8224 5.41446 3.43949
244 3 14.1169 7.02984 7.82283
245 1 14.7388 7.46487 7.19545
246 1 13.3418 7.03889 7.26102
247 3 1.42457 11.3624 13.2672
248 1 0.735104 11.9572 12.9259
249 1 2.32249 11.7233 13.1356
250 3 13.1092 11.1412 10.8068
251 1 13.9105 11.183 11.4081
252 1 12.3235 10.9488 11.2757
253 3 3.01104 14.7919 10.7595
254 1 3.69883 14.3671 11.2306
255 1 2.8155 14.1794 10.0514
256 3 3.33797 5.11078 11.2329
257 1 3.97616 4.88557 10.5898
258 1 3.53785 4.60077 12.0631
259 3 12.0618 13.6946 12.0947
260 1 11.8122 13.0637 11.3889
261 1 11.8119 14.5891 11.9286
262 3 15.4202 2.0975 14.8081
263 1 14.8081 2.06578 14.0298
264 1 0.278522 1.15401 14.6938
265 3 5.14388 13.7297 3.30524
266 1 6.00898 13.6663 2.8969
267 1 4.79926 12.7567 3.30001
268 3 7.58965 4.86064 12.4742
269 1 7.48937 4.7249 11.4416
270 1 6.85921 5.41519 12.8339
271 3 12.6864 8.56265 9.57135
272 1 13.56 8.36404 9.21774
273 1 12.8793 9.4615 10.0792
274 3 13.7828 1.69565 12.513
275 1 14.1472 1.27803 11.7407
276 1 13.637 2.60725 12.2475
277 3 5.76017 2.80613 0.10961
278 1 5.86979 2.09642 0.762658
279 1 6.56597 3.08918 15.1251
280 3 4.9228 4.45513 9.38455
281 1 5.90265 4.57143 9.46897
282 1 4.79054 3.87072 8.56974
283 3 4.90973 3.28001 6.94793
284 1 4.00169 3.25736 6.51918
285 1 5.5002 3.69493 6.27907
286 3 13.8155 11.1955 7.75524
287 1 13.128 10.7474 7.34421
288 1 14.0576 10.6776 8.51771
289 3 11.5353 8.58562 1.40667
290 1 11.4336 9.31353 1.99884
291 1 10.6787 8.42691 0.948524
292 3 9.56528 13.6516 2.97934
293 1 9.39568 14.1197 3.81929
294 1 10.1493 14.2495 2.47709
295 3 9.3397 11.7581 8.70954
296 1 9.55243 12.6293 8.34517
297 1 8.33293 11.7309 8.8806
298 3 13.5367 9.59045 4.03839
299 1 13.0795 8.76531 3.86086
300 1 12.9554 9.95873 4.70952
301 3 4.16016 3.53895 13.177
302 1 3.73722 3.35815 14.0794
303 1 4.76284 2.75957 13.1056
304 3 13.9171 14.5729 14.6365
305 1 13.7603 14.878 13.7634