LAMMPS data file via write_data, version 2 Aug 2023, timestep = 4500000, units = metal

768 atoms
3 atom types

0 12.1 xlo xhi
0 12.1 ylo yhi
0 106 zlo zhi

Masses

1 1.008
2 12.011
3 15.999

Atoms # atomic

636 1 2.5621037665729425 2.0729103842891514 26.89580555003378 3 2 0
61 3 3.448357491037311 2.2817859030323593 27.326111867268875 -1 -3 0
562 3 6.116952429967281 2.279857059307133 26.118593846498065 -6 -11 0
59 1 6.704659078185193 1.5735817550730349 26.454077859818113 1 4 0
170 1 6.083465385483378 2.1201300502765332 25.12213589738142 3 7 0
123 1 7.118735211257962 3.8233188109164944 26.598427993800975 4 -4 0
281 1 4.102348004387794 1.968067209252954 26.753114253541128 4 1 0
422 1 11.09842699404477 3.195340897862597 27.276361020000106 10 0 0
37 3 12.09075929613354 3.29315833001686 27.333975146310383 -1 3 0
57 1 0.06826373538441029 4.1817871468852905 27.72262799707079 4 5 0
592 3 3.3425065455526997 6.944616218416818 25.452599534489604 -3 1 0
293 1 2.986341819719306 6.329153837386252 25.960746068207488 -6 1 0
71 1 2.6870127891101663 7.226712501170634 24.94047661336539 7 1 0
351 1 0.17568993755840967 6.351266019154335 26.960594172341214 10 6 0
493 3 0.5820562507052994 6.0751799324488776 27.867399307091837 6 11 0
243 1 3.9471233927296634 4.137057806629241 27.53629671701367 -2 2 0
325 3 6.159379176907276 6.8356727696695465 25.656424270686145 -2 -5 0
326 1 6.3865425341994735 5.896791624255423 25.507249235942297 -2 -5 0
377 1 5.218585354862469 7.009968520954211 25.35960576584748 3 0 0
51 1 8.01585431992698 7.410057014326373 25.064365321875258 -3 -4 0
451 3 7.577815771314152 4.632876591812313 26.888596485520594 11 2 0
486 1 5.6940984717343435 7.234734854183432 28.113421705746717 -11 -10 0
655 3 4.387804352374891 4.818017087856448 28.05215615015533 -4 6 0
461 1 5.342858281874719 4.6528113817433745 27.87901945645197 2 8 0
261 1 9.371094213331 6.7404142444194735 25.20424197954315 -3 -5 0
607 3 8.94825888701468 7.610448725268857 25.009391670986545 1 7 0
78 1 10.655260663234923 4.038138431369444 25.513008677724414 -8 -6 0
657 1 9.518098976187352 4.826145143680262 26.141847264479694 -7 -1 0
94 3 10.374897151916736 4.913896527721128 25.736117362362894 -7 -11 0
63 1 8.143914743808633 4.39350865205063 27.655931034979776 6 0 0
225 1 1.6134717048808414 8.366098236531649 27.32502850262683 10 2 0
191 1 0.22951604833944275 8.107409044171954 25.290594949847232 -2 -2 0
483 1 0.14525350240273996 12.039635442777216 25.21191647881848 1 1 0
101 1 1.1711399387016286 9.851948831421483 25.363325300489684 -3 1 0
736 3 2.206039624536176 8.900284662336118 27.82787618204332 5 2 0
690 1 2.6562963298082765 9.503060124967204 27.20591485709465 4 -2 0
115 3 1.9421087207264602 9.351596534658988 24.935742155319467 3 -2 0
638 1 2.6764907265579136 9.966608012421426 24.904876696145607 2 -3 0
496 3 0.6805102813386332 11.873275973522418 25.96852432595268 4 -9 0
210 1 0.1013429193192086 11.903509567627625 26.72843806802339 -9 -6 0
380 1 7.260204504792902 11.347480691543916 26.470126518075325 -6 4 0
407 1 4.560235937804342 9.578541517047498 24.759873605853663 5 0 0
580 3 7.832648067128171 12.039168996683598 26.728603363436974 -3 -3 0
320 1 7.583460339867023 8.294292711431465 28.018843722307974 -7 1 0
409 3 4.2941097605638 10.478655895716086 24.922111880291915 -8 0 0
264 1 4.604343923950626 10.66292047187466 25.84972023039508 2 5 0
79 3 4.89496168681702 11.129290269329932 27.942328882354865 3 5 0
433 3 11.73097171964735 8.144736408087557 26.02535968896099 -1 -2 0
188 1 10.82661722921389 8.448827381953711 25.737712956102577 -12 2 0
110 1 8.174431638334784 11.864319883009157 27.59514001507423 -2 -2 0
374 1 8.551338031059773 8.737178185896207 26.95239812215997 -7 2 0
373 3 8.410461621152189 8.798088619906899 27.904682555711695 -7 2 0
43 3 1.5830448317072503 1.9142376304900264 30.106563687257538 -11 5 0
212 1 0.7092771170360427 1.5954040661237199 29.834150722118498 -3 -1 0
332 1 2.1928188956516315 1.8576908643541812 29.335964350729824 0 -4 0
195 1 1.6535335215412823 3.77678425843919 30.096122446403815 4 -2 0
729 1 2.855120350091146 1.280549144205942 31.519249839592405 1 4 0
70 3 5.477111322454958 1.5757232054766064 29.25702765954127 6 2 0
45 1 4.673257934263465 2.030269412946734 28.901400348591128 4 7 0
144 1 5.420885674559972 1.472218464470194 30.243147716067806 4 1 0
434 1 7.352645411478226 2.117913176579364 30.38591876242605 0 -3 0
266 1 7.964595680524855 1.6419455648850139 31.686074325939217 9 -1 0
448 3 7.8720968028404625 2.3903529563948074 31.113097540273973 -1 6 0
728 1 10.703799675615485 1.1860949435558332 29.29819807024318 -10 -6 0
130 3 10.812065834355685 1.9156777808775576 29.90229612704079 -7 13 0
437 1 10.40840001864262 1.738485609769604 30.709628156999297 -3 6 0
93 1 9.970082875600571 3.27995490287434 29.2073789138344 2 4 0
171 1 8.669921199115098 4.019957112991947 31.535287265322438 0 5 0
178 3 1.7671175385029774 4.874232278376159 30.040837606661935 3 0 0
198 1 1.463093438016358 5.060837944748502 29.12536693238132 6 10 0
278 1 3.2554238137275378 7.164849749243539 30.61132393273561 -2 -7 0
426 1 0.14675781875942442 5.455505859257602 31.431255077426457 -2 -3 0
625 3 3.521471592417112 7.552501632654262 31.503779868470073 1 -1 0
232 3 6.300181146266117 7.532074528908995 28.73768178664932 -9 -12 0
146 1 6.049037910183937 7.300467569755292 29.646741997438514 1 0 0
722 1 4.193244307683565 4.26328820357182 31.39470750214275 11 2 0
28 3 4.801460704350548 4.591150183818283 30.749714541539436 12 6 0
174 1 4.471405102504614 4.497746867618732 29.801224594142713 -6 2 0
46 3 6.024675621209716 6.857856070278354 31.769951788598462 2 4 0
299 1 4.310445706872627 7.058681651681702 31.725357727300583 -3 -5 0
737 1 6.213823801411046 5.960072696938403 31.532525121676265 3 1 0
269 1 11.961713487772288 6.47938984089937 28.364102362141537 3 0 0
9 1 9.441584831018046 4.77883734241233 29.53333790938608 9 -4 0
34 3 9.587230196141755 4.08852123197863 28.808101674657046 9 -2 0
560 1 9.621244510957734 7.36056895264376 28.6631001042256 -2 -1 0
612 1 10.29485219802571 7.586761896228896 30.03293804433071 8 2 0
286 3 10.3192074012801 7.006516060942105 29.25368955819841 4 5 0
648 1 11.363526908623674 6.629255300736803 31.07953568325523 -7 6 0
136 3 8.76725031969498 4.996214835571264 31.61555113439097 1 -1 0
537 1 9.650749765162638 5.178418850198605 31.352501670992957 -1 9 0
42 1 1.5257863321580047 9.081591133460439 29.523258532956845 3 -1 0
292 3 0.6864381664414231 9.130120044969813 30.086128948969808 2 -2 0
294 1 0.2709459201871702 10.69585340232029 28.974674715853375 4 -9 0
267 1 0.7895244751890087 9.935046139611373 30.600624834014653 3 2 0
654 1 4.9996178803383975 10.473267237427653 28.581326431839184 10 -8 0
746 1 5.238372710392004 11.865018763518709 28.46154698197269 2 3 0
317 1 6.566447019272205 11.350836457495333 31.458052812521057 -2 1 0
371 1 4.721524308988583 9.656562199598907 31.222807332198503 -5 -2 0
547 3 5.044556198617295 10.505504033693684 31.032932738211425 3 5 0
549 1 4.429572865997469 11.03462954188961 31.534657223637826 4 5 0
54 1 8.971557854999123 10.178389085457738 29.27426712088832 -7 2 0
685 3 9.11624014487913 11.079677309895917 29.635759166831257 -4 -5 0
557 1 11.074846803088798 11.411233365163117 29.287287412943474 3 -8 0
658 3 11.939939085082722 11.561123954871007 28.950028555583433 10 9 0
659 1 8.494914008879501 11.110900339341162 30.404663732167606 9 10 0
689 1 3.6800607351325825 1.7123698690023543 32.69022267630204 2 0 0
727 3 3.5800002639821202 0.9778449465566811 32.11840245667528 1 4 0
482 1 0.81716656594066 2.6427523105526873 33.94104107218993 -1 8 0
282 1 2.276662911307724 2.372461590572087 33.95940982824953 9 3 0
610 3 1.4367959892324276 1.8790395419379893 34.11199709687137 5 2 0
60 1 3.545404068225165 0.523397652744439 34.336122799558986 6 8 0
370 3 3.450260436854698 3.936966682864901 33.475541620130734 -3 -4 0
120 1 4.006895403856511 3.987543216861268 34.26561260643328 5 8 0
481 3 4.221378124661701 0.7652131345318062 34.961179893165756 1 6 0
672 1 4.907741593883604 2.425452629281897 35.159675485830505 7 -10 0
152 1 4.945873301964723 0.16298090746874883 34.737388192217665 -2 15 0
121 3 10.972877026202315 0.7469994996940913 32.31592815460515 1 -5 0
498 1 10.501839044537252 1.0024173834486678 33.05466156618588 1 -6 0
579 1 11.868476907117932 0.9904313668268192 32.43703827271842 3 -4 0
704 1 9.261265421744932 1.375755009102151 34.64943197355871 -4 7 0
172 3 9.353245110228357 3.121604469698616 33.97979284597276 -7 0 0
111 1 10.12801000891129 3.6918098091751164 33.79885479694315 -5 6 0
177 1 8.615962622837092 3.732999779603032 34.18407946884131 -12 2 0
214 3 9.022922648679613 0.43901161504300407 34.706447807061885 11 2 0
12 1 0.047481002555540996 4.803848933169339 35.032693744864005 -10 6 0
327 1 2.2320419321032685 7.823965920088606 32.64624931156894 4 -9 0
518 1 0.8320865937605234 7.773055788556169 33.514514004153014 -1 11 0
485 1 2.1870179259239895 6.198465843869453 35.263383009819506 -5 2 0
420 1 2.738802064895099 4.536810903855169 33.65542478517605 -2 -3 0
168 1 6.841649676475501 7.414480136863641 31.957912561020787 -8 -9 0
245 1 6.336020396799286 5.107076366043664 34.845030108705515 3 -7 0
381 1 7.157991783168156 5.477971844827992 33.61860173727891 -8 -3 0
379 3 7.257121734825165 5.220646897279743 34.5656424283608 -8 -3 0
180 1 12.02449586107294 4.8683703192387515 33.478306073704154 -3 10 0
346 3 12.099633488568145 4.277934561328444 34.21697028363216 4 5 0
229 3 11.615596408746837 6.0880185560415425 31.836924360244495 -3 -2 0
495 1 8.884416917723701 7.854635397342302 33.057691604496405 5 13 0
670 3 1.7136292686117285 8.22175321908473 33.374705218898264 -1 4 0
441 1 0.18447706288999455 9.479771117320118 34.495116251217745 0 -1 0
504 1 2.782233752962814 9.482684452210632 34.46052030290048 0 -7 0
622 3 3.2118899212673493 10.028799926094164 35.115005451009864 7 -1 0
40 3 7.238860559822507 11.90693967297346 31.8700753212715 4 -6 0
41 1 7.3332122855147315 11.611812334098884 32.779907756218975 4 -5 0
459 1 7.671385518508238 8.702172435320309 33.61544821054394 -3 6 0
596 1 7.426938662342881 11.820139154873825 34.941187798206826 0 0 0
764 1 6.556840622950746 10.473617820555084 34.97258618034422 -6 -9 0
25 3 6.5982912875839554 11.350740894699824 34.622354988849914 2 -1 0
13 3 8.257649289746091 8.60221657522539 32.84875865895203 -14 12 0
88 3 10.505137700064685 10.23492943018851 32.621827223633744 -8 6 0
399 1 10.80524772285976 11.137657677695957 32.380203983172 -3 9 0
194 1 10.811360643777716 9.578261492873594 34.1374749182778 11 -2 0
134 1 9.673585115957517 12.08069356524601 35.180329408128756 2 -3 0
132 1 9.546463336026294 10.18901891859758 32.38077915047091 -7 7 0
100 3 11.404618442000368 9.290700199034939 34.83858848863809 8 -10 0
559 3 2.933168912408304 3.8687369217328293 37.35766506401623 0 1 0
398 1 1.334745107927793 0.8106356878368445 35.497021661103155 7 8 0
201 1 2.126430365724145 0.3816978937870486 36.76384774752095 -6 -2 0
535 3 1.4347196313207835 0.10838363670755105 36.1610364325639 -4 2 0
176 1 1.982369916180133 3.706263679398975 37.54938063347509 0 8 0
23 1 3.4245754981483283 3.6757345820907084 38.14986560355018 4 4 0
706 3 0.2558060137103602 3.562265846575798 37.963449954010116 -9 5 0
754 3 3.261064459513711 0.3315705839662888 38.47834213148809 2 0 0
268 3 4.945817743897291 3.391448971861817 35.436803715629736 -1 -1 0
159 1 6.711499925358768 3.1102550254183092 36.61367731573677 -5 1 0
241 3 7.491121206438307 3.0666084302429963 37.15872417371001 -5 1 0
468 1 7.110514681519971 3.4058153289560544 37.976338145358326 3 -9 0
554 1 4.38415164139006 3.4272066164938937 36.23755268328031 -9 -5 0
756 1 4.182439923456557 0.22505986902271163 38.133082022965056 2 0 0
186 1 10.030834255762604 2.787111026889514 35.709705569509104 1 -8 0
55 3 10.041367832442017 2.6059541675587403 36.6560431833221 1 -1 0
489 1 10.877406192681294 0.6953712832748079 36.94923307922682 4 -8 0
378 1 9.077897540875329 2.5124470231727463 36.86558703420446 -4 -14 0
131 1 11.520073095950089 3.2260541605710373 37.497735081517895 -16 15 0
270 1 12.008858873093052 3.7668012537876363 38.8310785263921 3 -3 0
75 1 3.2161488938669303 5.302635176629899 36.092200598460266 4 0 0
376 3 3.134838651031558 6.115300673627905 35.5691832157132 0 -17 0
524 1 1.0432733696020742 6.627901349968074 37.62704418027396 6 1 0
175 3 1.4855839349492355 6.561334041100153 38.449365085670586 8 2 0
69 1 2.402222296141376 6.684780109890387 38.30609301659168 9 1 0
438 1 4.34657863941236 7.400336421502385 36.001821906794106 5 1 0
246 1 9.167825774395158 6.577087042902446 37.23815737645885 14 -7 0
96 1 8.509751478180483 5.333602731931056 36.73783464127352 -11 1 0
277 3 9.38671641954738 5.6408164089600366 37.05756296871942 -1 -9 0
602 1 11.06687452766216 5.724214198430827 36.58725901024499 2 3 0
334 3 11.729928126894519 6.200903710564471 36.116246852558056 2 3 0
335 1 11.376730969484736 7.072353329813979 36.03360870319778 2 3 0
419 1 9.542670877916999 4.394615338913329 38.54769852698776 2 -3 0
624 1 2.5053058647921445 10.582529723821146 35.491666335380046 7 -1 0
221 1 0.08955677880456296 9.494115996150617 37.97518156544375 -7 -5 0
18 1 3.931414768336166 8.148954038846203 38.02731896787308 -5 -5 0
501 1 4.230039879024953 8.901353314769183 35.89454415641039 3 4 0
588 1 6.471812186406444 8.353186198533555 35.91831680222071 2 -2 0
673 3 7.204966936250056 8.908489900210451 35.53093947117728 2 -3 0
675 1 8.000397909947045 8.76492711780561 36.0774913443146 3 -3 0
288 1 6.021509427689459 10.444024827730821 37.9059151684853 5 0 0
499 3 4.74416839521895 8.211760088425084 36.28270870080146 3 4 0
106 3 5.938537870880496 10.120262100157671 38.801714965265205 -4 -13 0
739 3 10.965488520843788 11.85510885215198 36.911496139338965 -9 -14 0
233 1 11.882082119941604 11.688402506803012 36.600722866464096 -5 -1 0
211 3 9.051861077274898 8.408286588692105 37.82237144678172 2 1 0
738 1 11.5143551405762 9.313626813308995 36.61793228321226 1 -4 0
219 1 9.95226576360295 8.81983082201936 37.80832874000648 1 4 0
472 3 11.605557204615065 8.876033103593128 37.49023539252776 -8 -8 0
342 1 8.553627256924786 9.036176012636469 38.37416638625063 7 3 0
623 1 10.546640953783667 11.25353159107352 38.54566526785059 10 9 0
540 1 0.8455897826354422 1.394764804728469 39.31525727560538 -7 8 0
476 1 3.4667146966556266 0.5734318366972014 39.37412278926889 1 0 0
330 1 1.1559845005124614 0.8591748850183558 40.73339942028434 -2 4 0
355 3 0.4866788442780738 0.8736576228715528 40.055064073616755 -6 4 0
529 3 3.0875597815913705 0.5501869169149872 41.10332304256242 2 -3 0
671 1 3.788677672164813 1.0344307335359115 41.60538523633798 -2 6 0
199 3 6.489707058023409 0.6627109894467824 39.680647764368594 1 -7 0
21 1 6.948697194911831 0.9207683678839593 40.45230219881167 0 5 0
751 3 5.238708275078031 3.370698453850395 39.062246483419536 0 -2 0
752 1 5.621362410362159 2.512784510062215 39.26667546586004 0 -2 0
701 1 5.644924859936013 3.9826617119939423 39.63898744714084 -1 -2 0
395 1 6.413811217192734 2.322657750325194 42.30996134731671 9 -2 0
235 3 7.641595441511057 3.7121443362821362 42.21930416258116 -5 -13 0
135 1 9.737382457498304 1.6604429646715824 40.479835201655206 6 1 0
31 3 9.426293718575167 1.6693759153425538 41.37175715758149 14 10 0
74 1 9.020682003615663 2.5597656742872665 41.53441784158316 11 12 0
385 3 9.695893192409649 4.0106674600901355 39.418663070138926 -3 5 0
525 1 8.400634216223958 0.3076722567518663 41.87502537905852 -7 19 0
616 3 2.1879193811139306 4.821179384138249 40.60594541738251 -4 8 0
497 1 3.06563102839392 5.166656293785073 40.77150638319614 5 -5 0
15 1 1.6373053255693553 5.508630113472827 40.25540131447653 -2 -3 0
333 1 3.939430953169603 7.34308751881256 40.564824544284754 2 3 0
362 1 0.000581715786931631 6.7950645295297 39.62010801013166 4 3 0
558 1 1.3409021982120752 4.169253289864722 41.855174429917334 2 -12 0
272 1 3.5740806140508976 6.908424328550268 41.94569978285066 5 -6 0
372 1 7.543834326848071 4.369974464776186 41.51801379494832 -7 -3 0
151 3 6.858200828725546 5.681244549226358 40.326459538055566 10 4 0
279 1 5.933865506346881 5.941315615376119 40.58973220404266 -2 -2 0
249 1 7.295869375550199 6.562928092551703 40.31185821285084 -1 -3 0
316 3 4.037347393355936 6.570249232674425 41.16653072669217 1 13 0
68 1 9.822080973383063 4.85937447073169 39.908592329722204 -5 -4 0
700 3 11.25940437842312 6.714258363170203 40.074977307184575 1 -1 0
80 1 10.719271384133771 7.399818434805247 39.60339437976619 4 4 0
479 1 11.855130735856417 7.4841064924980785 41.944464612478654 7 5 0
163 3 1.6295111907713173 10.164448287036686 38.99459861411669 8 -4 0
383 1 2.983666399854479 9.085278049774184 38.92002920541955 -1 2 0
164 1 2.056251606730586 11.043221743980876 38.92287731352982 8 -4 0
234 1 3.1291100815720636 11.767511919019029 41.51104095214057 8 6 0
328 3 3.7964115168865433 8.57616317303291 38.90512694983337 2 2 0
165 1 1.269791202005146 10.217888778433084 39.88706958103526 8 -4 0
677 1 2.5350546594033503 10.049416617059075 42.1794128494619 3 2 0
750 1 0.07114723713045244 10.915768231036925 41.97020187695652 0 2 0
356 1 0.14191070688442992 9.334842108686608 42.03125435273994 -3 -1 0
154 3 0.6001179201206913 10.096218347785715 41.69476832737828 3 -6 0
528 1 6.476111315430034 11.828479153875548 39.81953776112089 4 3 0
236 1 5.114815378240073 9.53343208117331 38.93568065665803 -4 3 0
545 1 6.85355332293589 9.129473457803144 40.01731168502198 5 1 0
544 3 7.35472407022918 8.533381937122298 40.59599947160586 5 0 0
577 3 8.009788210351655 11.630362606770664 42.356989109577405 -6 -3 0
92 1 6.261869059228412 8.934450560782544 41.9082979719331 4 -4 0
435 1 11.368975030854038 11.540402903833735 39.743469070281286 1 0 0
626 1 8.19146145928678 8.98534086198225 40.88026523249101 0 -2 0
169 3 10.52352697016273 11.196931723966431 39.50987101188712 2 5 0
660 1 10.29107510288533 9.947592491434502 40.83102236654481 -3 -3 0
192 1 9.408967643041265 10.23385256046783 42.00392590530044 1 -1 0
190 3 9.690812494194134 9.515001606491957 41.42939579778606 1 -1 0
480 1 10.650885087058823 8.33491682641781 42.23178811219397 7 5 0
276 1 1.137483584151612 2.192233126700125 43.3525862233695 -8 6 0
652 3 0.9062411740513945 3.69209641265028 42.6409458577438 -2 -18 0
548 1 2.507070928368052 0.26222412550655605 44.63195358727578 -7 4 0
484 3 1.1609448415431347 1.4254505446638221 43.922109515152954 -8 10 0
215 1 0.6534782016359721 1.7280451935819625 44.67039377181595 13 1 0
564 1 5.322760836029289 3.7791800768665 45.05194241314461 -8 1 0
223 3 5.705902256007502 1.7095078839776419 42.49485285287925 7 1 0
27 1 5.620959355440036 1.7184383931107146 43.499651826287 2 1 0
280 3 6.483952189277052 1.039542298536353 45.45447532235223 10 0 0
200 1 7.390836849748635 1.3209805988317769 45.59704626965144 2 -10 0
456 1 6.527883925639081 0.08234481739422965 45.27974664224644 -15 0 0
368 1 10.63100399790385 0.5830044933686243 42.419366137954185 2 -5 0
53 1 12.069348093232904 3.783617609413201 42.82839524739477 4 8 0
628 3 10.718755760082997 3.3700821031838095 44.08353157978367 -9 3 0
647 1 9.585481677929272 0.9442649675557558 45.52812463186556 2 -1 0
516 1 10.2315823540106 2.778001255847028 44.71333838728845 -2 -10 0
594 1 11.883720285610256 0.43681573942545715 43.208433219811134 1 1 0
745 3 9.389718008856219 1.8464671404099906 45.85437900146259 3 0 0
590 1 2.6404815489927325 4.4861446851675115 45.26064307524482 -2 -8 0
418 3 2.734779841853847 7.027997796163853 43.411539533348325 -6 -4 0
491 1 2.8177092289260823 7.738693721136806 44.07171841583944 0 -8 0
608 1 1.3539254718361788 4.238211593732531 44.39786157531979 4 6 0
307 3 1.7132989471628899 4.712413961472248 45.141834140780496 1 -3 0
255 1 2.112980986338204 6.368239984933058 43.674677440280064 -6 2 0
139 3 4.654373479181329 4.354953568413765 45.42952409166465 -6 11 0
453 1 8.015394712019308 4.149196750314592 43.01386623005301 4 -6 0
698 1 8.057385607254771 6.062211069319371 44.16806089800451 -4 -1 0
30 1 5.469745764373031 7.485770144928407 43.65045194202597 6 7 0
140 1 5.473421330081082 5.972920466687657 44.05381770347127 2 6 0
64 3 5.940319839369724 6.781962931183586 44.16529959244182 4 3 0
173 1 5.559241375747727 6.883964940049964 45.90556501216203 5 -3 0
322 3 8.9721480100663 5.713744395772734 43.97064104006212 -1 11 0
44 1 9.368857349392396 6.246339548119337 43.29870542135027 0 10 0
444 1 10.17112338496985 4.170083251336602 44.07195030859059 -4 -2 0
478 3 11.447273358781082 7.9494353723791376 42.66471777315672 7 5 0
102 1 9.969312715957551 6.510997634574032 45.590749622353854 2 8 0
553 3 2.8398074642362805 11.683114652478638 45.19609864861437 -7 2 0
676 3 3.3177486563268697 10.339163747309112 42.649013997296784 3 2 0
678 1 3.11320069088251 10.624606154251934 43.57437757784176 3 2 0
586 3 2.930871734615642 8.845413717048867 45.374812336033976 -9 -12 0
216 1 3.0850978866468255 9.7941979840535 45.29237122463228 5 -6 0
329 1 7.1114934541577 11.837202263416424 42.566371215426436 -8 6 0
653 1 5.0051968483594615 9.549561308106927 42.64841023509468 4 -10 0
520 3 5.786744072345812 8.964527815941427 42.775494060969294 5 -4 0
347 1 6.422436769637169 10.160141230307303 44.247947548105216 4 -4 0
244 3 6.246387002371588 10.73136956380381 45.001478256371165 -8 0 0
417 1 6.124574273983179 10.129063139817251 45.712349788105335 -4 1 0
367 3 11.30555220514185 12.048581367020617 42.593413918250924 2 -6 0
224 1 11.816686500439857 9.131813572415226 45.190898256681784 0 0 0
401 1 9.87077627354403 10.34090452688089 45.26191228735227 0 6 0
402 1 8.910998083589696 10.9569931822953 44.20578797942638 0 5 0
400 3 9.385742844190002 11.140342080999613 45.050487558865065 0 5 0
749 1 2.0920237546718994 1.8415684260852765 47.63284601524571 -4 -2 0
391 3 1.7954750906454868 0.932916721577061 47.62329745814092 10 -5 0
248 1 2.3757351281868 0.564530793302774 48.278362335655366 7 -2 0
19 3 3.5534418279482405 3.193034785934068 48.08075114653077 1 3 0
167 1 0.22708361996141974 0.04519904767572569 47.77049871441812 11 5 0
38 1 3.507696146793133 3.705016493300156 48.85456998199868 1 -9 0
396 1 6.21826764512402 1.7688867564743176 48.61113220576019 8 1 0
394 3 5.64872733055155 1.1416065763281085 48.15517221875468 8 1 0
275 1 5.981190362725492 0.963911865112194 47.216406076904306 6 -3 0
531 1 4.12685681719859 2.454268707039763 48.21833283564327 -2 -1 0
442 3 7.364933291435482 3.1630139891133284 49.23731985250888 6 3 0
162 1 8.105167861118527 2.610838249552658 48.950087844107735 -7 -5 0
149 1 9.633953803888236 1.8877109647012402 46.759742264050054 -3 4 0
767 1 8.999123851188424 0.42284409366605147 48.3300202526236 1 1 0
766 3 9.45178117168643 1.2623963319789595 48.5236733413413 1 0 0
768 1 10.117116222660883 1.0637346737506903 49.19224423137938 1 0 0
488 1 3.603891250236732 6.9942409317131045 47.49293721920097 -2 2 0
556 3 2.896737868106746 7.547889410540696 47.842974895990736 0 -2 0
699 1 1.0754713582708078 5.508536057007312 46.51935634385756 -3 0 0
697 3 0.6837783755051661 6.101867026427742 47.19755881278226 -3 0 0
263 1 2.130445235371596 6.994537909051377 47.731494798447706 -8 2 0
47 1 0.6859308959127032 5.661458351682517 48.95866542473926 -4 1 0
581 1 4.72686327135654 4.239995351849382 46.404709874181634 10 2 0
452 1 6.197300370799722 6.344766855672636 47.13478356818193 5 -3 0
424 3 5.459753544751631 6.921612829327619 46.87682592362516 2 -7 0
597 1 6.675020850493777 6.352441798130636 49.40558239731032 -3 -1 0
56 1 7.812179472142527 4.732539598166971 48.29625933604469 -5 6 0
259 3 7.763131424301551 5.656134969192577 47.93600356561382 -7 7 0
423 1 10.199416766668016 7.764734296087569 46.424749606199 -10 -6 0
103 3 10.139406906078962 6.811121255553272 46.45963738072148 -11 0 0
714 1 11.912967625836307 6.344806177789438 46.88491751081269 -3 0 0
138 1 10.48965690223798 6.5263845273213805 49.32291557206654 -15 1 0
519 1 8.611561053503696 6.054429296811864 47.63436250096848 -13 7 0
291 1 2.6449308500452844 12.0625650133428 46.107670163649836 -9 14 0
114 1 2.958799695237775 8.591779756443437 46.31247430597102 -2 -4 0
338 1 4.86083975685713 11.820184688917614 49.08270162442043 2 0 0
337 3 4.356547250458193 10.981981727266152 49.20494227666763 2 0 0
29 1 5.683512673398167 8.432336350779389 47.23261605451452 3 -2 0
230 1 5.209593579919975 9.680434967566748 48.10616046767354 5 1 0
487 3 5.870708827282609 9.392693224909673 47.45500652549704 4 -2 0
384 1 7.471649260929318 10.038915208649238 47.7857941244789 0 2 0
748 3 11.184561984074564 9.189593126665361 45.954773915094464 -3 3 0
166 3 11.669755168085096 11.409955587921985 47.600765148337786 10 4 0
260 1 11.214840657010944 11.185623982119491 48.39093375253958 4 10 0
500 1 11.591282482460798 9.767156762770554 46.638405293011544 -2 3 0
382 3 8.259639012349497 10.568558263458625 47.74908936836879 0 2 0
231 1 8.46310394924633 10.732487551773795 46.84612299182997 -2 -5 0
662 1 9.440256471936102 10.102071370799147 49.0690612447723 0 3 0
14 1 0.15075398312176627 0.29729314681324737 50.36523945924534 -1 4 0
4 3 3.616034008942424 0.4117648485121879 52.266912782674986 4 2 0
443 1 7.25839487584424 3.1897273200196925 50.18645139907238 6 3 0
702 1 6.695196465125977 0.9235908645766433 51.77947027454663 -4 3 0
490 3 6.899733122545736 3.1524051468270162 51.863585927331904 2 -5 0
24 1 6.091552502943142 3.2667140338413256 52.4243196296669 -8 -8 0
492 1 7.741757650649048 3.3122081974571986 52.37812926978594 2 -5 0
5 1 4.545734395483711 0.3260721681222715 52.085935028559526 4 2 0
514 3 4.034496612800452 3.1079627926139137 52.790555757547914 6 4 0
517 3 6.226277303600587 0.08752718244645795 51.850428556002385 3 0 0
429 1 4.035348631834973 2.128273733821375 52.60012298446481 6 -2 0
76 3 11.457534902308163 0.8392241030569445 50.51997861537685 -5 -3 0
32 1 10.99222725294197 0.36452354020578276 51.22993737167469 8 8 0
66 1 11.8843394662825 2.2943280367217422 51.479818909140114 -7 2 0
247 3 11.803696501037164 3.2471850042715884 51.7045408900703 -5 3 0
17 1 12.012636241063923 3.809932620172554 50.96040880115498 1 -4 0
161 1 10.309663247784986 3.70231250364134 52.18758530296295 -4 -4 0
10 3 9.482790576493036 4.017084850497639 52.63237775826188 -11 6 0
147 1 1.7123157313495487 5.381102110991477 50.18909666185856 1 7 0
145 3 0.8116251110254875 5.329376934666105 49.86102632526766 1 6 0
587 1 3.8522465764785956 4.42734864825583 51.27505632651857 -9 -11 0
148 3 3.6159873408029846 4.989669890211965 50.558315869630924 -5 2 0
511 3 0.316488286357163 7.959238084734176 52.21055954080913 4 9 0
651 1 4.4819921046273885 5.419475151330786 50.537422533906316 -7 0 0
715 3 6.159217656132044 6.390435503626044 50.183882502330114 -3 -1 0
717 1 5.835578577838171 7.272123603678025 50.37247885851419 -3 -1 0
641 1 7.419986215157786 6.417033397228078 51.25096025301349 -8 1 0
703 3 10.326764890963581 7.0989462886860775 50.051442177237725 -5 10 0
107 1 9.53897564916642 6.751920089036589 50.542047744311915 0 12 0
512 1 11.945223722747212 7.31908409756277 51.68375225005193 3 9 0
611 1 8.624940490024283 5.615380641954166 51.9209927542682 3 -1 0
502 3 8.20483735125642 6.51602207623893 51.833751963964396 -8 -1 0
98 1 2.8277964195202276 8.311541651766255 49.6105779736951 6 0 0
339 1 3.484760305966388 11.254986505861806 49.507315616885776 2 0 0
160 3 1.8513262816177232 11.587626163732347 50.405777327651826 -2 1 0
681 1 2.399538724394408 11.95642038463911 51.1718949774668 -8 -3 0
471 1 1.7831324066491374 10.63532428624556 50.52207981256949 -5 2 0
765 1 1.9995422575476305 8.112081599118152 50.95606672576405 -8 -1 0
763 3 2.693742670108954 8.613571005460622 50.54133411424509 -8 -1 0
273 1 4.173952640036991 8.701318100273657 51.2047624221521 3 6 0
271 3 5.186990652720682 8.788635365086066 51.05745165437734 3 6 0
629 1 5.330233014474758 9.575716749786048 50.53664139604122 -2 2 0
530 1 5.8006522131427 8.40094007293871 52.80385490294663 2 1 0
302 1 6.465048223841913 11.847502276254705 52.7611349038184 -3 -5 0
513 1 11.951316838492106 8.830356666817558 52.09700309985215 3 9 0
663 1 10.374362719705854 9.048271955982177 49.76985463245004 0 3 0
661 3 10.194539388393661 10.032850949256492 49.67714726487431 0 3 0
569 1 10.416819131520842 10.127155524489961 51.55982951676676 -8 1 0
568 3 11.085854701199283 10.302876944451299 52.261431386246024 -8 1 0
719 1 0.24018324749441866 2.504268290623444 55.53831413084216 2 1 0
693 1 0.7260767994604479 3.485910976246426 53.38208005810016 0 -2 0
691 3 1.1091805795535699 3.720711939710973 54.261925090172824 0 -2 0
684 1 2.070884702713303 3.513028053607673 54.23942124366882 0 -3 0
345 1 1.6559159259781158 0.4472820949956895 54.85524049620995 4 2 0
189 1 6.881237319759283 0.480932560035767 54.91904783727854 -9 -1 0
712 3 7.5272614174441985 2.167717100494727 55.38083881217966 -3 1 0
713 1 7.478333404228298 2.9996647139251382 54.84785321811231 -3 1 0
156 1 4.221814878743466 3.335979269541829 53.7184152393051 3 -3 0
617 1 6.940390817841621 2.3394066922323487 56.201070964549324 -5 6 0
48 1 4.410377397450654 3.671984218252305 56.2483101205494 2 6 0
427 3 9.77970873086206 0.7463624103219062 54.77737609084408 11 -14 0
33 1 8.99796309499858 1.1838752463570255 55.106237386284306 7 -5 0
720 1 11.244065435320254 1.401422663070949 55.614588092162485 1 1 0
179 1 9.711216225681792 4.0030460422484255 53.575004461309305 0 3 0
718 3 11.958458477849387 1.7960560957912466 56.16706142281206 1 1 0
125 1 2.465160202371713 6.524362381779275 55.60112769935339 0 2 0
52 3 0.6520224910792755 6.553769476969238 54.65126601076664 -5 4 0
62 1 0.6374031686207846 6.80722736961819 53.709821159116714 -3 2 0
124 3 3.145235285910573 6.497651787259275 56.271874742673866 0 1 0
393 1 3.825434876264519 4.9711226590542585 55.57027055860902 18 -4 0
258 1 0.42976889069331425 5.630388404292675 54.689468975115986 -2 4 0
97 3 4.379765456255222 4.170472624258009 55.39440717775792 14 0 0
656 1 6.099956016354191 4.627355828131504 55.11659965926923 -8 -13 0
217 3 6.928951601824562 4.790298029994198 54.6403173276809 0 -16 0
386 1 4.745216810447509 7.532843700035573 56.040077495175794 0 3 0
301 3 6.254741588703308 7.884011817724981 53.49230465239102 2 3 0
303 1 7.068790172769546 7.512324218867605 53.09464855924115 2 3 0